# Forces     
# CofR       : (0.000000e+00 0.000000e+00 0.000000e+00)
# Time       forces(pressure viscous porous) moment(pressure viscous porous)
0.0025       	((2.060164e+03 9.753369e+02 -7.657298e-18) (6.207405e+00 6.834676e-01 2.125739e-19) (0.000000e+00 0.000000e+00 0.000000e+00)) ((-3.901348e+02 8.240656e+02 4.555127e+03) (-2.733870e-01 2.482962e+00 -8.219863e+00) (0.000000e+00 0.000000e+00 0.000000e+00))
0.005        	((3.750646e+02 3.391890e+03 -4.889153e-18) (8.178397e+00 6.594519e-01 1.076494e-19) (0.000000e+00 0.000000e+00 0.000000e+00)) ((-1.356756e+03 1.500259e+02 1.029285e+04) (-2.637808e-01 3.271359e+00 -7.115551e+00) (0.000000e+00 0.000000e+00 0.000000e+00))
0.0075       	((2.274296e+02 2.900750e+03 -4.475511e-18) (8.128755e+00 1.213140e+00 -9.604247e-20) (0.000000e+00 0.000000e+00 0.000000e+00)) ((-1.160300e+03 9.097182e+01 7.960313e+03) (-4.852560e-01 3.251502e+00 -6.022376e+00) (0.000000e+00 0.000000e+00 0.000000e+00))
0.01         	((2.391030e+02 2.503141e+03 -6.393064e-18) (6.996083e+00 1.449735e+00 8.909521e-20) (0.000000e+00 0.000000e+00 0.000000e+00)) ((-1.001256e+03 9.564122e+01 6.754769e+03) (-5.798942e-01 2.798433e+00 -5.053939e+00) (0.000000e+00 0.000000e+00 0.000000e+00))
0.0125       	((2.225695e+02 1.960252e+03 -5.420227e-18) (7.107553e+00 1.325361e+00 -8.948484e-21) (0.000000e+00 0.000000e+00 0.000000e+00)) ((-7.841010e+02 8.902781e+01 5.458339e+03) (-5.301443e-01 2.843021e+00 -5.035202e+00) (0.000000e+00 0.000000e+00 0.000000e+00))
0.015        	((2.334508e+02 1.719321e+03 -4.688960e-18) (6.399508e+00 1.171954e+00 3.197351e-20) (0.000000e+00 0.000000e+00 0.000000e+00)) ((-6.877285e+02 9.338030e+01 4.983606e+03) (-4.687818e-01 2.559803e+00 -5.179017e+00) (0.000000e+00 0.000000e+00 0.000000e+00))
0.0175       	((2.405884e+02 1.453237e+03 -3.832476e-18) (6.267400e+00 1.457794e+00 8.179662e-21) (0.000000e+00 0.000000e+00 0.000000e+00)) ((-5.812947e+02 9.623535e+01 4.253951e+03) (-5.831177e-01 2.506960e+00 -3.172724e+00) (0.000000e+00 0.000000e+00 0.000000e+00))
0.02         	((2.524418e+02 1.155586e+03 -2.932028e-18) (5.997767e+00 1.466585e+00 2.873628e-20) (0.000000e+00 0.000000e+00 0.000000e+00)) ((-4.622344e+02 1.009767e+02 3.432429e+03) (-5.866342e-01 2.399107e+00 -2.371663e+00) (0.000000e+00 0.000000e+00 0.000000e+00))
0.0225       	((2.627546e+02 8.555654e+02 -2.634797e-18) (5.760669e+00 1.362948e+00 3.573012e-20) (0.000000e+00 0.000000e+00 0.000000e+00)) ((-3.422262e+02 1.051018e+02 2.697812e+03) (-5.451792e-01 2.304268e+00 -2.315830e+00) (0.000000e+00 0.000000e+00 0.000000e+00))
0.025        	((2.701909e+02 5.827566e+02 -2.534579e-18) (5.605530e+00 1.235469e+00 5.325791e-20) (0.000000e+00 0.000000e+00 0.000000e+00)) ((-2.331026e+02 1.080763e+02 2.082225e+03) (-4.941878e-01 2.242212e+00 -2.630172e+00) (0.000000e+00 0.000000e+00 0.000000e+00))
0.0275       	((2.800601e+02 3.922681e+02 -2.625799e-18) (5.532874e+00 1.114459e+00 2.119066e-20) (0.000000e+00 0.000000e+00 0.000000e+00)) ((-1.569072e+02 1.120240e+02 1.711172e+03) (-4.457836e-01 2.213150e+00 -3.087081e+00) (0.000000e+00 0.000000e+00 0.000000e+00))
0.03         	((2.890040e+02 3.026889e+02 -2.702356e-18) (5.338109e+00 1.045818e+00 9.548883e-21) (0.000000e+00 0.000000e+00 0.000000e+00)) ((-1.210756e+02 1.156016e+02 1.572389e+03) (-4.183273e-01 2.135244e+00 -3.328475e+00) (0.000000e+00 0.000000e+00 0.000000e+00))
0.0325       	((2.932315e+02 2.564041e+02 -2.677147e-18) (5.202477e+00 1.039585e+00 2.744999e-20) (0.000000e+00 0.000000e+00 0.000000e+00)) ((-1.025616e+02 1.172926e+02 1.499438e+03) (-4.158342e-01 2.080991e+00 -3.280515e+00) (0.000000e+00 0.000000e+00 0.000000e+00))
0.035        	((3.001253e+02 2.097015e+02 -2.463655e-18) (5.100229e+00 1.080516e+00 5.255656e-20) (0.000000e+00 0.000000e+00 0.000000e+00)) ((-8.388062e+01 1.200501e+02 1.412685e+03) (-4.322063e-01 2.040092e+00 -3.052328e+00) (0.000000e+00 0.000000e+00 0.000000e+00))
0.0375       	((3.090032e+02 1.606276e+02 -2.201677e-18) (4.953657e+00 1.128717e+00 3.452066e-20) (0.000000e+00 0.000000e+00 0.000000e+00)) ((-6.425103e+01 1.236013e+02 1.333671e+03) (-4.514868e-01 1.981463e+00 -2.777368e+00) (0.000000e+00 0.000000e+00 0.000000e+00))
0.04         	((3.239696e+02 9.618124e+01 -2.108417e-18) (4.848819e+00 1.147984e+00 1.781494e-20) (0.000000e+00 0.000000e+00 0.000000e+00)) ((-3.847250e+01 1.295878e+02 1.196496e+03) (-4.591934e-01 1.939527e+00 -2.656288e+00) (0.000000e+00 0.000000e+00 0.000000e+00))
0.0425       	((3.517079e+02 -3.679284e+01 -2.505142e-18) (4.783953e+00 1.170252e+00 4.137134e-20) (0.000000e+00 0.000000e+00 0.000000e+00)) ((1.471714e+01 1.406831e+02 8.456088e+02) (-4.681010e-01 1.913581e+00 -2.558711e+00) (0.000000e+00 0.000000e+00 0.000000e+00))
0.045        	((3.707412e+02 -3.535520e+02 -2.674511e-18) (4.799353e+00 1.130760e+00 5.574845e-20) (0.000000e+00 0.000000e+00 0.000000e+00)) ((1.414208e+02 1.482965e+02 -6.945028e+01) (-4.523039e-01 1.919741e+00 -2.795179e+00) (0.000000e+00 0.000000e+00 0.000000e+00))
0.0475       	((3.485916e+02 -2.652692e+02 -2.123023e-18) (4.791653e+00 1.086885e+00 -4.750179e-20) (0.000000e+00 0.000000e+00 0.000000e+00)) ((1.061077e+02 1.394366e+02 3.118631e+02) (-4.347538e-01 1.916661e+00 -3.037094e+00) (0.000000e+00 0.000000e+00 0.000000e+00))
0.05         	((3.362542e+02 -4.983434e+01 -2.216173e-18) (4.722591e+00 1.136801e+00 -2.573550e-20) (0.000000e+00 0.000000e+00 0.000000e+00)) ((1.993373e+01 1.345017e+02 9.470051e+02) (-4.547205e-01 1.889036e+00 -2.791496e+00) (0.000000e+00 0.000000e+00 0.000000e+00))
0.0525       	((3.356631e+02 -1.661810e+02 -2.376953e-18) (4.723141e+00 1.154858e+00 8.791855e-20) (0.000000e+00 0.000000e+00 0.000000e+00)) ((6.647239e+01 1.342652e+02 5.261855e+02) (-4.619432e-01 1.889256e+00 -2.761225e+00) (0.000000e+00 0.000000e+00 0.000000e+00))
0.055        	((3.207137e+02 -1.338128e+02 -2.158788e-18) (4.724491e+00 1.161408e+00 -6.076408e-21) (0.000000e+00 0.000000e+00 0.000000e+00)) ((5.352513e+01 1.282855e+02 6.575564e+02) (-4.645631e-01 1.889797e+00 -2.768095e+00) (0.000000e+00 0.000000e+00 0.000000e+00))
0.0575       	((3.180447e+02 5.080980e+01 -2.336719e-18) (4.704910e+00 1.205969e+00 4.786762e-20) (0.000000e+00 0.000000e+00 0.000000e+00)) ((-2.032392e+01 1.272179e+02 1.224900e+03) (-4.823876e-01 1.881964e+00 -2.593933e+00) (0.000000e+00 0.000000e+00 0.000000e+00))
0.06         	((3.235038e+02 -6.855777e+01 -2.780962e-18) (4.729925e+00 1.227582e+00 1.124622e-19) (0.000000e+00 0.000000e+00 0.000000e+00)) ((2.742311e+01 1.294015e+02 7.863557e+02) (-4.910326e-01 1.891970e+00 -2.548894e+00) (0.000000e+00 0.000000e+00 0.000000e+00))
0.0625       	((3.143684e+02 -2.176277e+02 -2.834553e-18) (4.776173e+00 1.204033e+00 7.433002e-20) (0.000000e+00 0.000000e+00 0.000000e+00)) ((8.705108e+01 1.257474e+02 3.618059e+02) (-4.816131e-01 1.910469e+00 -2.723770e+00) (0.000000e+00 0.000000e+00 0.000000e+00))
0.065        	((3.004933e+02 -8.846752e+00 -2.650091e-18) (4.799149e+00 1.191939e+00 5.275868e-20) (0.000000e+00 0.000000e+00 0.000000e+00)) ((3.538701e+00 1.201973e+02 1.031807e+03) (-4.767757e-01 1.919659e+00 -2.825231e+00) (0.000000e+00 0.000000e+00 0.000000e+00))
0.0675       	((2.983057e+02 4.266343e+01 -2.924166e-18) (4.819410e+00 1.209131e+00 8.403608e-20) (0.000000e+00 0.000000e+00 0.000000e+00)) ((-1.706537e+01 1.193223e+02 1.112808e+03) (-4.836525e-01 1.927764e+00 -2.803171e+00) (0.000000e+00 0.000000e+00 0.000000e+00))
0.07         	((2.898161e+02 -6.560803e+01 -3.147999e-18) (4.854107e+00 1.205046e+00 9.587572e-20) (0.000000e+00 0.000000e+00 0.000000e+00)) ((2.624321e+01 1.159264e+02 7.498268e+02) (-4.820184e-01 1.941643e+00 -2.869736e+00) (0.000000e+00 0.000000e+00 0.000000e+00))
0.0725       	((2.791950e+02 1.873137e+01 -2.988270e-18) (4.882541e+00 1.201865e+00 7.676885e-20) (0.000000e+00 0.000000e+00 0.000000e+00)) ((-7.492548e+00 1.116780e+02 1.034402e+03) (-4.807459e-01 1.953017e+00 -2.930898e+00) (0.000000e+00 0.000000e+00 0.000000e+00))
0.075        	((2.756467e+02 1.235544e+02 -3.179924e-18) (4.900905e+00 1.207093e+00 8.537193e-20) (0.000000e+00 0.000000e+00 0.000000e+00)) ((-4.942175e+01 1.102587e+02 1.319653e+03) (-4.828373e-01 1.960362e+00 -2.945321e+00) (0.000000e+00 0.000000e+00 0.000000e+00))
0.0775       	((2.834110e+02 8.779737e+01 -3.377406e-18) (4.935090e+00 1.209326e+00 1.053985e-19) (0.000000e+00 0.000000e+00 0.000000e+00)) ((-3.511895e+01 1.133644e+02 1.171962e+03) (-4.837303e-01 1.974036e+00 -2.991300e+00) (0.000000e+00 0.000000e+00 0.000000e+00))
0.08         	((2.666903e+02 2.382294e+01 -3.431178e-18) (4.975837e+00 1.192260e+00 1.295135e-19) (0.000000e+00 0.000000e+00 0.000000e+00)) ((-9.529175e+00 1.066761e+02 9.784048e+02) (-4.769038e-01 1.990335e+00 -3.112486e+00) (0.000000e+00 0.000000e+00 0.000000e+00))
0.0825       	((2.609429e+02 1.451976e+02 -3.372191e-18) (5.004262e+00 1.187856e+00 7.230504e-20) (0.000000e+00 0.000000e+00 0.000000e+00)) ((-5.807904e+01 1.043772e+02 1.359690e+03) (-4.751424e-01 2.001705e+00 -3.177376e+00) (0.000000e+00 0.000000e+00 0.000000e+00))
0.085        	((2.725330e+02 1.926661e+02 -3.580029e-18) (5.023363e+00 1.193394e+00 9.969563e-20) (0.000000e+00 0.000000e+00 0.000000e+00)) ((-7.706643e+01 1.090132e+02 1.455245e+03) (-4.773577e-01 2.009345e+00 -3.186877e+00) (0.000000e+00 0.000000e+00 0.000000e+00))
0.0875       	((2.624868e+02 7.011003e+01 -3.737432e-18) (5.065207e+00 1.169901e+00 1.106419e-19) (0.000000e+00 0.000000e+00 0.000000e+00)) ((-2.804401e+01 1.049947e+02 1.063343e+03) (-4.679604e-01 2.026083e+00 -3.349573e+00) (0.000000e+00 0.000000e+00 0.000000e+00))
0.09         	((2.509186e+02 1.495816e+02 -3.647249e-18) (5.095814e+00 1.150963e+00 5.564286e-20) (0.000000e+00 0.000000e+00 0.000000e+00)) ((-5.983263e+01 1.003674e+02 1.334340e+03) (-4.603853e-01 2.038326e+00 -3.473388e+00) (0.000000e+00 0.000000e+00 0.000000e+00))
0.0925       	((2.587739e+02 2.378967e+02 -3.732554e-18) (5.110211e+00 1.159081e+00 7.767860e-20) (0.000000e+00 0.000000e+00 0.000000e+00)) ((-9.515866e+01 1.035096e+02 1.573573e+03) (-4.636326e-01 2.044084e+00 -3.471529e+00) (0.000000e+00 0.000000e+00 0.000000e+00))
0.095        	((2.533514e+02 1.477355e+02 -3.919181e-18) (5.143932e+00 1.141393e+00 6.226974e-20) (0.000000e+00 0.000000e+00 0.000000e+00)) ((-5.909418e+01 1.013406e+02 1.263215e+03) (-4.565573e-01 2.057573e+00 -3.595008e+00) (0.000000e+00 0.000000e+00 0.000000e+00))
0.0975       	((2.437276e+02 1.903018e+02 -3.809300e-18) (5.173746e+00 1.122607e+00 4.728416e-20) (0.000000e+00 0.000000e+00 0.000000e+00)) ((-7.612072e+01 9.749104e+01 1.412203e+03) (-4.490428e-01 2.069498e+00 -3.726455e+00) (0.000000e+00 0.000000e+00 0.000000e+00))
0.1          	((2.447262e+02 2.816289e+02 -3.828738e-18) (5.185590e+00 1.124419e+00 5.167185e-20) (0.000000e+00 0.000000e+00 0.000000e+00)) ((-1.126516e+02 9.789048e+01 1.673520e+03) (-4.497676e-01 2.074236e+00 -3.744144e+00) (0.000000e+00 0.000000e+00 0.000000e+00))
0.1025       	((2.417667e+02 2.281485e+02 -4.019740e-18) (5.211363e+00 1.115806e+00 8.011272e-20) (0.000000e+00 0.000000e+00 0.000000e+00)) ((-9.125939e+01 9.670668e+01 1.473657e+03) (-4.463222e-01 2.084545e+00 -3.828139e+00) (0.000000e+00 0.000000e+00 0.000000e+00))
0.105        	((2.362067e+02 2.265295e+02 -3.980152e-18) (5.239945e+00 1.090321e+00 6.833761e-20) (0.000000e+00 0.000000e+00 0.000000e+00)) ((-9.061178e+01 9.448268e+01 1.477000e+03) (-4.361285e-01 2.095978e+00 -3.983924e+00) (0.000000e+00 0.000000e+00 0.000000e+00))
0.1075       	((2.329297e+02 3.127886e+02 -3.924667e-18) (5.253307e+00 1.084762e+00 6.676417e-20) (0.000000e+00 0.000000e+00 0.000000e+00)) ((-1.251154e+02 9.317189e+01 1.735843e+03) (-4.339047e-01 2.101323e+00 -4.045490e+00) (0.000000e+00 0.000000e+00 0.000000e+00))
0.11         	((2.304489e+02 3.051524e+02 -4.067248e-18) (5.269840e+00 1.081041e+00 8.785808e-20) (0.000000e+00 0.000000e+00 0.000000e+00)) ((-1.220610e+02 9.217955e+01 1.677999e+03) (-4.324166e-01 2.107936e+00 -4.093102e+00) (0.000000e+00 0.000000e+00 0.000000e+00))
0.1125       	((2.277942e+02 2.713385e+02 -4.130190e-18) (5.296901e+00 1.063214e+00 7.739158e-20) (0.000000e+00 0.000000e+00 0.000000e+00)) ((-1.085354e+02 9.111767e+01 1.569263e+03) (-4.252857e-01 2.118760e+00 -4.220363e+00) (0.000000e+00 0.000000e+00 0.000000e+00))
0.115        	((2.236956e+02 3.165140e+02 -4.077650e-18) (5.314299e+00 1.041739e+00 7.490894e-20) (0.000000e+00 0.000000e+00 0.000000e+00)) ((-1.266056e+02 8.947824e+01 1.712751e+03) (-4.166956e-01 2.125720e+00 -4.351179e+00) (0.000000e+00 0.000000e+00 0.000000e+00))
0.1175       	((2.207580e+02 3.546263e+02 -4.110128e-18) (5.327388e+00 1.034048e+00 7.686659e-20) (0.000000e+00 0.000000e+00 0.000000e+00)) ((-1.418505e+02 8.830321e+01 1.809826e+03) (-4.136190e-01 2.130955e+00 -4.423355e+00) (0.000000e+00 0.000000e+00 0.000000e+00))
0.12         	((2.183872e+02 3.353946e+02 -4.177200e-18) (5.344790e+00 1.023066e+00 7.834776e-20) (0.000000e+00 0.000000e+00 0.000000e+00)) ((-1.341578e+02 8.735487e+01 1.731342e+03) (-4.092264e-01 2.137916e+00 -4.505109e+00) (0.000000e+00 0.000000e+00 0.000000e+00))
0.1225       	((2.143634e+02 3.542562e+02 -4.143009e-18) (5.362946e+00 1.014088e+00 7.443765e-20) (0.000000e+00 0.000000e+00 0.000000e+00)) ((-1.417025e+02 8.574535e+01 1.790398e+03) (-4.056353e-01 2.145179e+00 -4.583604e+00) (0.000000e+00 0.000000e+00 0.000000e+00))
0.125        	((2.108036e+02 4.100396e+02 -4.074229e-18) (5.373347e+00 1.012129e+00 7.120055e-20) (0.000000e+00 0.000000e+00 0.000000e+00)) ((-1.640158e+02 8.432143e+01 1.949581e+03) (-4.048514e-01 2.149339e+00 -4.617981e+00) (0.000000e+00 0.000000e+00 0.000000e+00))
0.1275       	((2.071634e+02 4.168788e+02 -4.122521e-18) (5.385184e+00 1.012654e+00 8.200744e-20) (0.000000e+00 0.000000e+00 0.000000e+00)) ((-1.667515e+02 8.286538e+01 1.944641e+03) (-4.050615e-01 2.154073e+00 -4.649744e+00) (0.000000e+00 0.000000e+00 0.000000e+00))
0.13         	((2.042820e+02 4.205191e+02 -4.148575e-18) (5.399402e+00 1.006647e+00 6.955345e-20) (0.000000e+00 0.000000e+00 0.000000e+00)) ((-1.682077e+02 8.171281e+01 1.946619e+03) (-4.026586e-01 2.159761e+00 -4.704749e+00) (0.000000e+00 0.000000e+00 0.000000e+00))
0.1325       	((2.010259e+02 4.604866e+02 -4.081596e-18) (5.411253e+00 1.005557e+00 6.355649e-20) (0.000000e+00 0.000000e+00 0.000000e+00)) ((-1.841946e+02 8.041037e+01 2.062830e+03) (-4.022228e-01 2.164501e+00 -4.742147e+00) (0.000000e+00 0.000000e+00 0.000000e+00))
0.135        	((1.974812e+02 4.812950e+02 -4.090999e-18) (5.419878e+00 1.005385e+00 6.360794e-20) (0.000000e+00 0.000000e+00 0.000000e+00)) ((-1.925180e+02 7.899248e+01 2.105857e+03) (-4.021541e-01 2.167951e+00 -4.766114e+00) (0.000000e+00 0.000000e+00 0.000000e+00))
0.1375       	((1.949650e+02 4.855044e+02 -4.126407e-18) (5.432163e+00 1.004046e+00 6.597358e-20) (0.000000e+00 0.000000e+00 0.000000e+00)) ((-1.942018e+02 7.798600e+01 2.104379e+03) (-4.016186e-01 2.172865e+00 -4.804854e+00) (0.000000e+00 0.000000e+00 0.000000e+00))
0.14         	((1.923826e+02 5.094469e+02 -4.086539e-18) (5.442334e+00 1.001072e+00 6.520714e-20) (0.000000e+00 0.000000e+00 0.000000e+00)) ((-2.037787e+02 7.695302e+01 2.170873e+03) (-4.004287e-01 2.176934e+00 -4.841782e+00) (0.000000e+00 0.000000e+00 0.000000e+00))
0.1425       	((1.895048e+02 5.295244e+02 -4.077712e-18) (5.451653e+00 1.002380e+00 6.673412e-20) (0.000000e+00 0.000000e+00 0.000000e+00)) ((-2.118098e+02 7.580194e+01 2.218991e+03) (-4.009518e-01 2.180661e+00 -4.864934e+00) (0.000000e+00 0.000000e+00 0.000000e+00))
0.145        	((1.871802e+02 5.387858e+02 -4.097909e-18) (5.461141e+00 1.000187e+00 6.736520e-20) (0.000000e+00 0.000000e+00 0.000000e+00)) ((-2.155143e+02 7.487208e+01 2.234038e+03) (-4.000749e-01 2.184456e+00 -4.897016e+00) (0.000000e+00 0.000000e+00 0.000000e+00))
0.1475       	((1.850220e+02 5.544454e+02 -4.078572e-18) (5.471418e+00 9.995355e-01 6.800341e-20) (0.000000e+00 0.000000e+00 0.000000e+00)) ((-2.217782e+02 7.400879e+01 2.273919e+03) (-3.998142e-01 2.188567e+00 -4.928865e+00) (0.000000e+00 0.000000e+00 0.000000e+00))
0.15         	((1.827224e+02 5.695304e+02 -4.070619e-18) (5.479878e+00 9.977167e-01 7.004475e-20) (0.000000e+00 0.000000e+00 0.000000e+00)) ((-2.278122e+02 7.308897e+01 2.310389e+03) (-3.990867e-01 2.191951e+00 -4.957389e+00) (0.000000e+00 0.000000e+00 0.000000e+00))
0.1525       	((1.806558e+02 5.794016e+02 -4.079430e-18) (5.489676e+00 9.970523e-01 7.216785e-20) (0.000000e+00 0.000000e+00 0.000000e+00)) ((-2.317606e+02 7.226233e+01 2.330720e+03) (-3.988209e-01 2.195870e+00 -4.987672e+00) (0.000000e+00 0.000000e+00 0.000000e+00))
0.155        	((1.788014e+02 5.919588e+02 -4.066792e-18) (5.498237e+00 9.943506e-01 6.643873e-20) (0.000000e+00 0.000000e+00 0.000000e+00)) ((-2.367835e+02 7.152057e+01 2.361001e+03) (-3.977402e-01 2.199295e+00 -5.018784e+00) (0.000000e+00 0.000000e+00 0.000000e+00))
0.1575       	((1.768874e+02 6.047260e+02 -4.054457e-18) (5.507395e+00 9.941404e-01 6.301051e-20) (0.000000e+00 0.000000e+00 0.000000e+00)) ((-2.418904e+02 7.075497e+01 2.392075e+03) (-3.976562e-01 2.202958e+00 -5.045436e+00) (0.000000e+00 0.000000e+00 0.000000e+00))
0.16         	((1.751305e+02 6.160963e+02 -4.047509e-18) (5.515521e+00 9.918940e-01 5.977711e-20) (0.000000e+00 0.000000e+00 0.000000e+00)) ((-2.464385e+02 7.005219e+01 2.418470e+03) (-3.967576e-01 2.206208e+00 -5.073359e+00) (0.000000e+00 0.000000e+00 0.000000e+00))
0.1625       	((1.732222e+02 6.282194e+02 -4.034207e-18) (5.524364e+00 9.917737e-01 6.010284e-20) (0.000000e+00 0.000000e+00 0.000000e+00)) ((-2.512878e+02 6.928887e+01 2.447945e+03) (-3.967095e-01 2.209746e+00 -5.098536e+00) (0.000000e+00 0.000000e+00 0.000000e+00))
0.165        	((1.713746e+02 6.402654e+02 -4.022731e-18) (5.531907e+00 9.900078e-01 5.856697e-20) (0.000000e+00 0.000000e+00 0.000000e+00)) ((-2.561062e+02 6.854983e+01 2.476735e+03) (-3.960031e-01 2.212763e+00 -5.123205e+00) (0.000000e+00 0.000000e+00 0.000000e+00))
0.1675       	((1.696382e+02 6.520688e+02 -4.009982e-18) (5.540207e+00 9.902384e-01 5.675834e-20) (0.000000e+00 0.000000e+00 0.000000e+00)) ((-2.608275e+02 6.785526e+01 2.505149e+03) (-3.960954e-01 2.216083e+00 -5.145718e+00) (0.000000e+00 0.000000e+00 0.000000e+00))
0.17         	((1.679150e+02 6.651440e+02 -3.990730e-18) (5.547084e+00 9.891224e-01 5.592173e-20) (0.000000e+00 0.000000e+00 0.000000e+00)) ((-2.660576e+02 6.716599e+01 2.537324e+03) (-3.956489e-01 2.218833e+00 -5.166385e+00) (0.000000e+00 0.000000e+00 0.000000e+00))
0.1725       	((1.661558e+02 6.770164e+02 -3.977680e-18) (5.554634e+00 9.902701e-01 5.775779e-20) (0.000000e+00 0.000000e+00 0.000000e+00)) ((-2.708065e+02 6.646231e+01 2.565747e+03) (-3.961081e-01 2.221853e+00 -5.183504e+00) (0.000000e+00 0.000000e+00 0.000000e+00))
0.175        	((1.645297e+02 6.887692e+02 -3.962456e-18) (5.561037e+00 9.895399e-01 6.084369e-20) (0.000000e+00 0.000000e+00 0.000000e+00)) ((-2.755077e+02 6.581190e+01 2.593892e+03) (-3.958159e-01 2.224415e+00 -5.201137e+00) (0.000000e+00 0.000000e+00 0.000000e+00))
0.1775       	((1.629431e+02 7.006140e+02 -3.944675e-18) (5.568147e+00 9.909920e-01 5.806818e-20) (0.000000e+00 0.000000e+00 0.000000e+00)) ((-2.802456e+02 6.517723e+01 2.622836e+03) (-3.963968e-01 2.227259e+00 -5.215555e+00) (0.000000e+00 0.000000e+00 0.000000e+00))
0.18         	((1.613587e+02 7.122811e+02 -3.929907e-18) (5.574019e+00 9.905999e-01 5.715794e-20) (0.000000e+00 0.000000e+00 0.000000e+00)) ((-2.849125e+02 6.454349e+01 2.650521e+03) (-3.962400e-01 2.229608e+00 -5.230393e+00) (0.000000e+00 0.000000e+00 0.000000e+00))
0.1825       	((1.599749e+02 7.236021e+02 -3.911102e-18) (5.580559e+00 9.921193e-01 5.730201e-20) (0.000000e+00 0.000000e+00 0.000000e+00)) ((-2.894408e+02 6.398995e+01 2.678547e+03) (-3.968477e-01 2.232224e+00 -5.243238e+00) (0.000000e+00 0.000000e+00 0.000000e+00))
0.185        	((1.587046e+02 7.391335e+02 -3.881159e-18) (5.585487e+00 9.931415e-01 5.768196e-20) (0.000000e+00 0.000000e+00 0.000000e+00)) ((-2.956534e+02 6.348184e+01 2.718372e+03) (-3.972566e-01 2.234195e+00 -5.250097e+00) (0.000000e+00 0.000000e+00 0.000000e+00))
0.1875       	((1.572729e+02 7.520117e+02 -3.861995e-18) (5.591154e+00 9.971977e-01 5.802308e-20) (0.000000e+00 0.000000e+00 0.000000e+00)) ((-3.008047e+02 6.290915e+01 2.749690e+03) (-3.988791e-01 2.236462e+00 -5.249656e+00) (0.000000e+00 0.000000e+00 0.000000e+00))
0.19         	((1.559692e+02 7.650030e+02 -3.839478e-18) (5.595816e+00 9.997045e-01 5.431968e-20) (0.000000e+00 0.000000e+00 0.000000e+00)) ((-3.060012e+02 6.238769e+01 2.780868e+03) (-3.998818e-01 2.238326e+00 -5.248633e+00) (0.000000e+00 0.000000e+00 0.000000e+00))
0.1925       	((1.547454e+02 7.768001e+02 -3.817794e-18) (5.601429e+00 1.003822e+00 5.134451e-20) (0.000000e+00 0.000000e+00 0.000000e+00)) ((-3.107200e+02 6.189817e+01 2.809900e+03) (-4.015287e-01 2.240572e+00 -5.247143e+00) (0.000000e+00 0.000000e+00 0.000000e+00))
0.195        	((1.535437e+02 7.904687e+02 -3.793158e-18) (5.605920e+00 1.006023e+00 4.802338e-20) (0.000000e+00 0.000000e+00 0.000000e+00)) ((-3.161875e+02 6.141747e+01 2.843673e+03) (-4.024092e-01 2.242368e+00 -5.246899e+00) (0.000000e+00 0.000000e+00 0.000000e+00))
0.1975       	((1.524067e+02 8.025143e+02 -3.773137e-18) (5.611225e+00 1.009675e+00 4.803532e-20) (0.000000e+00 0.000000e+00 0.000000e+00)) ((-3.210057e+02 6.096269e+01 2.873113e+03) (-4.038700e-01 2.244490e+00 -5.247037e+00) (0.000000e+00 0.000000e+00 0.000000e+00))
0.2          	((1.513396e+02 8.141542e+02 -3.755849e-18) (5.615479e+00 1.010533e+00 4.929382e-20) (0.000000e+00 0.000000e+00 0.000000e+00)) ((-3.256617e+02 6.053586e+01 2.900708e+03) (-4.042134e-01 2.246192e+00 -5.252635e+00) (0.000000e+00 0.000000e+00 0.000000e+00))
0.2025       	((1.502472e+02 8.239088e+02 -3.742277e-18) (5.620642e+00 1.012743e+00 5.130560e-20) (0.000000e+00 0.000000e+00 0.000000e+00)) ((-3.295635e+02 6.009887e+01 2.923319e+03) (-4.050971e-01 2.248257e+00 -5.258998e+00) (0.000000e+00 0.000000e+00 0.000000e+00))
0.205        	((1.492094e+02 8.328694e+02 -3.729844e-18) (5.624942e+00 1.012837e+00 4.926145e-20) (0.000000e+00 0.000000e+00 0.000000e+00)) ((-3.331478e+02 5.968374e+01 2.943987e+03) (-4.051348e-01 2.249977e+00 -5.267444e+00) (0.000000e+00 0.000000e+00 0.000000e+00))
0.2075       	((1.483191e+02 8.403085e+02 -3.720099e-18) (5.630317e+00 1.014876e+00 4.943540e-20) (0.000000e+00 0.000000e+00 0.000000e+00)) ((-3.361234e+02 5.932764e+01 2.960737e+03) (-4.059503e-01 2.252127e+00 -5.273939e+00) (0.000000e+00 0.000000e+00 0.000000e+00))
0.21         	((1.477316e+02 8.465020e+02 -3.711106e-18) (5.635096e+00 1.015170e+00 4.993198e-20) (0.000000e+00 0.000000e+00 0.000000e+00)) ((-3.386008e+02 5.909265e+01 2.974065e+03) (-4.060679e-01 2.254038e+00 -5.280646e+00) (0.000000e+00 0.000000e+00 0.000000e+00))
0.2125       	((1.477699e+02 8.510565e+02 -3.702603e-18) (5.641075e+00 1.018338e+00 5.082490e-20) (0.000000e+00 0.000000e+00 0.000000e+00)) ((-3.404226e+02 5.910794e+01 2.983246e+03) (-4.073350e-01 2.256430e+00 -5.280391e+00) (0.000000e+00 0.000000e+00 0.000000e+00))
0.215        	((1.471552e+02 8.479775e+02 -3.706156e-18) (5.647158e+00 1.017457e+00 4.866568e-20) (0.000000e+00 0.000000e+00 0.000000e+00)) ((-3.391910e+02 5.886207e+01 2.969959e+03) (-4.069827e-01 2.258863e+00 -5.292431e+00) (0.000000e+00 0.000000e+00 0.000000e+00))
0.2175       	((1.465593e+02 8.513804e+02 -3.687712e-18) (5.654621e+00 1.016869e+00 4.619179e-20) (0.000000e+00 0.000000e+00 0.000000e+00)) ((-3.405522e+02 5.862372e+01 2.981042e+03) (-4.067475e-01 2.261848e+00 -5.310688e+00) (0.000000e+00 0.000000e+00 0.000000e+00))
0.22         	((1.459270e+02 8.587845e+02 -3.673886e-18) (5.660163e+00 1.013531e+00 4.452519e-20) (0.000000e+00 0.000000e+00 0.000000e+00)) ((-3.435138e+02 5.837080e+01 3.001489e+03) (-4.054126e-01 2.264065e+00 -5.333704e+00) (0.000000e+00 0.000000e+00 0.000000e+00))
0.2225       	((1.452500e+02 8.658522e+02 -3.664564e-18) (5.665935e+00 1.012276e+00 4.350369e-20) (0.000000e+00 0.000000e+00 0.000000e+00)) ((-3.463409e+02 5.810001e+01 3.019003e+03) (-4.049104e-01 2.266374e+00 -5.354306e+00) (0.000000e+00 0.000000e+00 0.000000e+00))
0.225        	((1.446473e+02 8.730286e+02 -3.654383e-18) (5.670398e+00 1.009618e+00 4.197254e-20) (0.000000e+00 0.000000e+00 0.000000e+00)) ((-3.492114e+02 5.785893e+01 3.036678e+03) (-4.038471e-01 2.268159e+00 -5.373670e+00) (0.000000e+00 0.000000e+00 0.000000e+00))
0.2275       	((1.440049e+02 8.793319e+02 -3.645497e-18) (5.675380e+00 1.009367e+00 4.061740e-20) (0.000000e+00 0.000000e+00 0.000000e+00)) ((-3.517328e+02 5.760194e+01 3.052186e+03) (-4.037468e-01 2.270152e+00 -5.388724e+00) (0.000000e+00 0.000000e+00 0.000000e+00))
0.23         	((1.433430e+02 8.847736e+02 -3.641373e-18) (5.679536e+00 1.007243e+00 4.005259e-20) (0.000000e+00 0.000000e+00 0.000000e+00)) ((-3.539094e+02 5.733718e+01 3.064827e+03) (-4.028971e-01 2.271815e+00 -5.404847e+00) (0.000000e+00 0.000000e+00 0.000000e+00))
0.2325       	((1.428923e+02 8.912221e+02 -3.630538e-18) (5.684111e+00 1.007233e+00 4.042380e-20) (0.000000e+00 0.000000e+00 0.000000e+00)) ((-3.564888e+02 5.715691e+01 3.081034e+03) (-4.028933e-01 2.273644e+00 -5.417617e+00) (0.000000e+00 0.000000e+00 0.000000e+00))
0.235        	((1.424022e+02 8.980690e+02 -3.619865e-18) (5.687529e+00 1.005635e+00 4.121017e-20) (0.000000e+00 0.000000e+00 0.000000e+00)) ((-3.592276e+02 5.696087e+01 3.097589e+03) (-4.022540e-01 2.275012e+00 -5.430017e+00) (0.000000e+00 0.000000e+00 0.000000e+00))
0.2375       	((1.418069e+02 9.032352e+02 -3.614245e-18) (5.691925e+00 1.005569e+00 3.941652e-20) (0.000000e+00 0.000000e+00 0.000000e+00)) ((-3.612941e+02 5.672277e+01 3.109282e+03) (-4.022278e-01 2.276770e+00 -5.442688e+00) (0.000000e+00 0.000000e+00 0.000000e+00))
0.24         	((1.413561e+02 9.090782e+02 -3.604932e-18) (5.695588e+00 1.003485e+00 3.757825e-20) (0.000000e+00 0.000000e+00 0.000000e+00)) ((-3.636313e+02 5.654244e+01 3.123481e+03) (-4.013939e-01 2.278235e+00 -5.457303e+00) (0.000000e+00 0.000000e+00 0.000000e+00))
0.2425       	((1.409247e+02 9.148846e+02 -3.595944e-18) (5.700045e+00 1.003012e+00 3.358631e-20) (0.000000e+00 0.000000e+00 0.000000e+00)) ((-3.659538e+02 5.636987e+01 3.137834e+03) (-4.012048e-01 2.280018e+00 -5.471607e+00) (0.000000e+00 0.000000e+00 0.000000e+00))
0.245        	((1.404466e+02 9.207235e+02 -3.589197e-18) (5.704170e+00 1.000157e+00 3.107090e-20) (0.000000e+00 0.000000e+00 0.000000e+00)) ((-3.682894e+02 5.617863e+01 3.151824e+03) (-4.000627e-01 2.281668e+00 -5.490071e+00) (0.000000e+00 0.000000e+00 0.000000e+00))
0.2475       	((1.400876e+02 9.267568e+02 -3.578665e-18) (5.708349e+00 9.994910e-01 3.076520e-20) (0.000000e+00 0.000000e+00 0.000000e+00)) ((-3.707027e+02 5.603506e+01 3.166882e+03) (-3.997964e-01 2.283340e+00 -5.504845e+00) (0.000000e+00 0.000000e+00 0.000000e+00))
0.25         	((1.395732e+02 9.329811e+02 -3.568852e-18) (5.711156e+00 9.977617e-01 3.083140e-20) (0.000000e+00 0.000000e+00 0.000000e+00)) ((-3.731924e+02 5.582930e+01 3.182027e+03) (-3.991047e-01 2.284462e+00 -5.516671e+00) (0.000000e+00 0.000000e+00 0.000000e+00))
0.2525       	((1.391204e+02 9.389471e+02 -3.559846e-18) (5.714444e+00 9.980531e-01 3.160606e-20) (0.000000e+00 0.000000e+00 0.000000e+00)) ((-3.755789e+02 5.564817e+01 3.196718e+03) (-3.992213e-01 2.285778e+00 -5.525902e+00) (0.000000e+00 0.000000e+00 0.000000e+00))
0.255        	((1.386772e+02 9.455519e+02 -3.548728e-18) (5.716611e+00 9.968478e-01 3.084761e-20) (0.000000e+00 0.000000e+00 0.000000e+00)) ((-3.782207e+02 5.547088e+01 3.213068e+03) (-3.987391e-01 2.286644e+00 -5.534554e+00) (0.000000e+00 0.000000e+00 0.000000e+00))
0.2575       	((1.380746e+02 9.515948e+02 -3.540194e-18) (5.719207e+00 9.976742e-01 3.177852e-20) (0.000000e+00 0.000000e+00 0.000000e+00)) ((-3.806379e+02 5.522983e+01 3.227822e+03) (-3.990697e-01 2.287683e+00 -5.540506e+00) (0.000000e+00 0.000000e+00 0.000000e+00))
0.26         	((1.375283e+02 9.578252e+02 -3.532149e-18) (5.720764e+00 9.970156e-01 3.196955e-20) (0.000000e+00 0.000000e+00 0.000000e+00)) ((-3.831301e+02 5.501131e+01 3.242908e+03) (-3.988063e-01 2.288306e+00 -5.545925e+00) (0.000000e+00 0.000000e+00 0.000000e+00))
0.2625       	((1.371135e+02 9.642018e+02 -3.521599e-18) (5.722602e+00 9.986835e-01 3.203308e-20) (0.000000e+00 0.000000e+00 0.000000e+00)) ((-3.856807e+02 5.484539e+01 3.258816e+03) (-3.994734e-01 2.289041e+00 -5.547047e+00) (0.000000e+00 0.000000e+00 0.000000e+00))
0.265        	((1.366559e+02 9.703975e+02 -3.513486e-18) (5.723483e+00 9.988973e-01 3.144105e-20) (0.000000e+00 0.000000e+00 0.000000e+00)) ((-3.881590e+02 5.466235e+01 3.273611e+03) (-3.995589e-01 2.289393e+00 -5.547650e+00) (0.000000e+00 0.000000e+00 0.000000e+00))
0.2675       	((1.361645e+02 9.757663e+02 -3.506534e-18) (5.724829e+00 1.001050e+00 3.090678e-20) (0.000000e+00 0.000000e+00 0.000000e+00)) ((-3.903065e+02 5.446580e+01 3.286374e+03) (-4.004198e-01 2.289932e+00 -5.545815e+00) (0.000000e+00 0.000000e+00 0.000000e+00))
0.27         	((1.357993e+02 9.816418e+02 -3.497687e-18) (5.725227e+00 1.001684e+00 2.924552e-20) (0.000000e+00 0.000000e+00 0.000000e+00)) ((-3.926567e+02 5.431971e+01 3.300659e+03) (-4.006734e-01 2.290091e+00 -5.543833e+00) (0.000000e+00 0.000000e+00 0.000000e+00))
0.2725       	((1.354190e+02 9.870306e+02 -3.490136e-18) (5.726156e+00 1.004133e+00 2.685336e-20) (0.000000e+00 0.000000e+00 0.000000e+00)) ((-3.948122e+02 5.416761e+01 3.313639e+03) (-4.016530e-01 2.290462e+00 -5.539995e+00) (0.000000e+00 0.000000e+00 0.000000e+00))
0.275        	((1.350234e+02 9.921066e+02 -3.484374e-18) (5.726485e+00 1.004821e+00 2.688355e-20) (0.000000e+00 0.000000e+00 0.000000e+00)) ((-3.968426e+02 5.400935e+01 3.325434e+03) (-4.019283e-01 2.290594e+00 -5.537564e+00) (0.000000e+00 0.000000e+00 0.000000e+00))
0.2775       	((1.347277e+02 9.969632e+02 -3.477038e-18) (5.727324e+00 1.007203e+00 2.828081e-20) (0.000000e+00 0.000000e+00 0.000000e+00)) ((-3.987853e+02 5.389109e+01 3.337164e+03) (-4.028814e-01 2.290929e+00 -5.533663e+00) (0.000000e+00 0.000000e+00 0.000000e+00))