# Forces     
# CofR       : (0.000000e+00 0.000000e+00 0.000000e+00)
# Time       forces(pressure viscous porous) moment(pressure viscous porous)
0.000734161  	((3.671770e+02 1.577593e+03 2.618637e-18) (5.872192e+00 -4.931793e-02 -1.439829e-20) (0.000000e+00 0.000000e+00 0.000000e+00)) ((-6.310373e+02 1.468708e+02 4.047261e+03) (1.972717e-02 2.348877e+00 -5.570658e+00) (0.000000e+00 0.000000e+00 0.000000e+00))
0.00144118   	((1.480629e+03 1.252271e+03 8.167189e-18) (6.773522e+00 -1.552765e-01 -9.356298e-21) (0.000000e+00 0.000000e+00 0.000000e+00)) ((-5.009082e+02 5.922517e+02 1.726162e+03) (6.211059e-02 2.709409e+00 -7.165660e+00) (0.000000e+00 0.000000e+00 0.000000e+00))
0.00215294   	((1.579081e+03 1.485039e+03 9.036166e-18) (7.806745e+00 -4.174433e-02 -1.088446e-20) (0.000000e+00 0.000000e+00 0.000000e+00)) ((-5.940155e+02 6.316323e+02 2.393117e+03) (1.669773e-02 3.122698e+00 -8.026470e+00) (0.000000e+00 0.000000e+00 0.000000e+00))
0.00286471   	((1.387097e+03 1.538562e+03 7.232212e-18) (8.712207e+00 2.322312e-02 -9.007729e-21) (0.000000e+00 0.000000e+00 0.000000e+00)) ((-6.154248e+02 5.548387e+02 2.726030e+03) (-9.289249e-03 3.484883e+00 -8.712894e+00) (0.000000e+00 0.000000e+00 0.000000e+00))
0.00357647   	((1.189088e+03 1.805195e+03 6.540417e-18) (9.524307e+00 6.216290e-02 -1.250072e-20) (0.000000e+00 0.000000e+00 0.000000e+00)) ((-7.220780e+02 4.756351e+02 3.800577e+03) (-2.486516e-02 3.809723e+00 -9.342183e+00) (0.000000e+00 0.000000e+00 0.000000e+00))
0.00428824   	((1.051802e+03 1.452731e+03 6.161562e-18) (1.018681e+01 1.017843e-01 -1.344861e-20) (0.000000e+00 0.000000e+00 0.000000e+00)) ((-5.810925e+02 4.207206e+02 3.366251e+03) (-4.071373e-02 4.074725e+00 -9.837889e+00) (0.000000e+00 0.000000e+00 0.000000e+00))
0.005        	((9.237714e+02 1.318662e+03 4.900629e-18) (1.064872e+01 1.447922e-01 -8.591017e-21) (0.000000e+00 0.000000e+00 0.000000e+00)) ((-5.274647e+02 3.695085e+02 3.501502e+03) (-5.791686e-02 4.259489e+00 -1.016936e+01) (0.000000e+00 0.000000e+00 0.000000e+00))
0.00571429   	((8.316833e+02 1.081728e+03 4.308746e-18) (1.097224e+01 1.804806e-01 -8.854588e-21) (0.000000e+00 0.000000e+00 0.000000e+00)) ((-4.326913e+02 3.326733e+02 3.247479e+03) (-7.219223e-02 4.388898e+00 -1.036673e+01) (0.000000e+00 0.000000e+00 0.000000e+00))
0.00642857   	((7.846559e+02 8.114794e+02 4.340947e-18) (1.120779e+01 2.130760e-01 -9.654061e-21) (0.000000e+00 0.000000e+00 0.000000e+00)) ((-3.245917e+02 3.138623e+02 2.874216e+03) (-8.523042e-02 4.483118e+00 -1.048116e+01) (0.000000e+00 0.000000e+00 0.000000e+00))
0.00714286   	((6.908105e+02 7.327502e+02 3.284477e-18) (1.137771e+01 2.460369e-01 -4.561553e-21) (0.000000e+00 0.000000e+00 0.000000e+00)) ((-2.931001e+02 2.763242e+02 2.968989e+03) (-9.841476e-02 4.551082e+00 -1.052738e+01) (0.000000e+00 0.000000e+00 0.000000e+00))
0.00785714   	((6.489491e+02 7.251098e+02 3.632493e-18) (1.149030e+01 2.762091e-01 -8.465102e-21) (0.000000e+00 0.000000e+00 0.000000e+00)) ((-2.900439e+02 2.595796e+02 3.064231e+03) (-1.104836e-01 4.596120e+00 -1.052086e+01) (0.000000e+00 0.000000e+00 0.000000e+00))
0.00857143   	((5.543243e+02 5.762047e+02 2.521871e-18) (1.155282e+01 3.050356e-01 -1.252131e-21) (0.000000e+00 0.000000e+00 0.000000e+00)) ((-2.304819e+02 2.217297e+02 2.930806e+03) (-1.220142e-01 4.621128e+00 -1.047636e+01) (0.000000e+00 0.000000e+00 0.000000e+00))
0.00928571   	((5.286041e+02 5.938069e+02 2.376638e-18) (1.157196e+01 3.354441e-01 -3.302861e-22) (0.000000e+00 0.000000e+00 0.000000e+00)) ((-2.375228e+02 2.114417e+02 3.118263e+03) (-1.341776e-01 4.628785e+00 -1.040347e+01) (0.000000e+00 0.000000e+00 0.000000e+00))
0.01         	((4.540782e+02 4.856310e+02 1.416037e-18) (1.155046e+01 3.642661e-01 5.628060e-21) (0.000000e+00 0.000000e+00 0.000000e+00)) ((-1.942524e+02 1.816313e+02 2.954113e+03) (-1.457064e-01 4.620185e+00 -1.031259e+01) (0.000000e+00 0.000000e+00 0.000000e+00))
0.0107143    	((4.319575e+02 4.653965e+02 2.028668e-18) (1.150224e+01 3.890967e-01 2.539155e-21) (0.000000e+00 0.000000e+00 0.000000e+00)) ((-1.861586e+02 1.727830e+02 2.981243e+03) (-1.556387e-01 4.600894e+00 -1.021351e+01) (0.000000e+00 0.000000e+00 0.000000e+00))
0.0114286    	((3.615328e+02 5.016151e+02 9.361052e-19) (1.143517e+01 4.113849e-01 8.800308e-21) (0.000000e+00 0.000000e+00 0.000000e+00)) ((-2.006460e+02 1.446131e+02 3.180243e+03) (-1.645540e-01 4.574067e+00 -1.010760e+01) (0.000000e+00 0.000000e+00 0.000000e+00))
0.0121429    	((3.353012e+02 4.364883e+02 1.078253e-18) (1.135564e+01 4.316390e-01 8.858613e-21) (0.000000e+00 0.000000e+00 0.000000e+00)) ((-1.745953e+02 1.341205e+02 3.109989e+03) (-1.726556e-01 4.542258e+00 -9.996641e+00) (0.000000e+00 0.000000e+00 0.000000e+00))
0.0128571    	((2.825556e+02 2.816889e+02 1.541168e-19) (1.126753e+01 4.499613e-01 1.497563e-20) (0.000000e+00 0.000000e+00 0.000000e+00)) ((-1.126755e+02 1.130222e+02 2.802212e+03) (-1.799845e-01 4.507013e+00 -9.882407e+00) (0.000000e+00 0.000000e+00 0.000000e+00))
0.0135714    	((2.524799e+02 3.392432e+02 2.145833e-19) (1.117251e+01 4.672592e-01 1.481111e-20) (0.000000e+00 0.000000e+00 0.000000e+00)) ((-1.356973e+02 1.009920e+02 3.098223e+03) (-1.869037e-01 4.469003e+00 -9.764291e+00) (0.000000e+00 0.000000e+00 0.000000e+00))
0.0142857    	((2.354937e+02 3.591455e+02 6.813817e-19) (1.107350e+01 4.837603e-01 1.109734e-20) (0.000000e+00 0.000000e+00 0.000000e+00)) ((-1.436582e+02 9.419748e+01 3.245173e+03) (-1.935041e-01 4.429399e+00 -9.645444e+00) (0.000000e+00 0.000000e+00 0.000000e+00))
0.015        	((1.938360e+02 1.073349e+02 -3.912568e-19) (1.096994e+01 4.993719e-01 2.165476e-20) (0.000000e+00 0.000000e+00 0.000000e+00)) ((-4.293397e+01 7.753439e+01 2.749342e+03) (-1.997487e-01 4.387977e+00 -9.526667e+00) (0.000000e+00 0.000000e+00 0.000000e+00))
0.0157143    	((1.679188e+02 1.736097e+02 5.838294e-20) (1.086362e+01 5.137771e-01 1.597834e-20) (0.000000e+00 0.000000e+00 0.000000e+00)) ((-6.944387e+01 6.716752e+01 2.994538e+03) (-2.055108e-01 4.345446e+00 -9.410513e+00) (0.000000e+00 0.000000e+00 0.000000e+00))
0.0164286    	((1.905333e+02 2.384442e+02 5.978703e-19) (1.075590e+01 5.272930e-01 1.385819e-20) (0.000000e+00 0.000000e+00 0.000000e+00)) ((-9.537769e+01 7.621331e+01 3.153887e+03) (-2.109172e-01 4.302358e+00 -9.297397e+00) (0.000000e+00 0.000000e+00 0.000000e+00))
0.0171429    	((1.459687e+02 1.009052e+02 -5.361638e-19) (1.064596e+01 5.412657e-01 2.168198e-20) (0.000000e+00 0.000000e+00 0.000000e+00)) ((-4.036208e+01 5.838748e+01 2.881123e+03) (-2.165063e-01 4.258385e+00 -9.182047e+00) (0.000000e+00 0.000000e+00 0.000000e+00))
0.0178571    	((1.414226e+02 7.562736e+01 -4.351432e-19) (1.053518e+01 5.550161e-01 2.045691e-20) (0.000000e+00 0.000000e+00 0.000000e+00)) ((-3.025094e+01 5.656905e+01 2.849470e+03) (-2.220064e-01 4.214071e+00 -9.069671e+00) (0.000000e+00 0.000000e+00 0.000000e+00))
0.0185714    	((1.415058e+02 7.407885e+01 -1.737347e-19) (1.042032e+01 5.683037e-01 1.993565e-20) (0.000000e+00 0.000000e+00 0.000000e+00)) ((-2.963154e+01 5.660231e+01 2.894677e+03) (-2.273215e-01 4.168127e+00 -8.953684e+00) (0.000000e+00 0.000000e+00 0.000000e+00))
0.0192857    	((1.498107e+02 7.327302e+01 -1.509032e-19) (1.030767e+01 5.824036e-01 1.883222e-20) (0.000000e+00 0.000000e+00 0.000000e+00)) ((-2.930921e+01 5.992430e+01 2.920616e+03) (-2.329614e-01 4.123069e+00 -8.841436e+00) (0.000000e+00 0.000000e+00 0.000000e+00))
0.02         	((1.543069e+02 8.376424e+01 -1.573785e-19) (1.019323e+01 5.955100e-01 1.949144e-20) (0.000000e+00 0.000000e+00 0.000000e+00)) ((-3.350570e+01 6.172277e+01 2.952202e+03) (-2.382040e-01 4.077292e+00 -8.729981e+00) (0.000000e+00 0.000000e+00 0.000000e+00))
0.0207143    	((1.695515e+02 2.050586e+02 1.300847e-19) (1.008079e+01 6.097758e-01 1.774353e-20) (0.000000e+00 0.000000e+00 0.000000e+00)) ((-8.202343e+01 6.782058e+01 3.270149e+03) (-2.439103e-01 4.032315e+00 -8.619423e+00) (0.000000e+00 0.000000e+00 0.000000e+00))
0.0214286    	((1.645211e+02 2.315091e+02 3.960698e-20) (9.968808e+00 6.229314e-01 1.850587e-20) (0.000000e+00 0.000000e+00 0.000000e+00)) ((-9.260365e+01 6.580842e+01 3.325234e+03) (-2.491726e-01 3.987523e+00 -8.513363e+00) (0.000000e+00 0.000000e+00 0.000000e+00))
0.0221429    	((1.624773e+02 2.353978e+02 -3.299804e-20) (9.860115e+00 6.358851e-01 1.836111e-20) (0.000000e+00 0.000000e+00 0.000000e+00)) ((-9.415911e+01 6.499092e+01 3.345554e+03) (-2.543541e-01 3.944046e+00 -8.413605e+00) (0.000000e+00 0.000000e+00 0.000000e+00))
0.0228571    	((1.825814e+02 3.319875e+02 6.610568e-20) (9.749848e+00 6.493341e-01 1.842188e-20) (0.000000e+00 0.000000e+00 0.000000e+00)) ((-1.327950e+02 7.303258e+01 3.585636e+03) (-2.597337e-01 3.899939e+00 -8.308335e+00) (0.000000e+00 0.000000e+00 0.000000e+00))
0.0235714    	((2.025178e+02 4.637794e+02 3.053235e-19) (9.645401e+00 6.630148e-01 1.842614e-20) (0.000000e+00 0.000000e+00 0.000000e+00)) ((-1.855118e+02 8.100710e+01 3.891503e+03) (-2.652059e-01 3.858161e+00 -8.210667e+00) (0.000000e+00 0.000000e+00 0.000000e+00))
0.0242857    	((1.973729e+02 5.000560e+02 8.996581e-20) (9.542629e+00 6.761994e-01 1.880878e-20) (0.000000e+00 0.000000e+00 0.000000e+00)) ((-2.000224e+02 7.894917e+01 3.974778e+03) (-2.704798e-01 3.817052e+00 -8.116585e+00) (0.000000e+00 0.000000e+00 0.000000e+00))
0.025        	((1.978893e+02 5.547235e+02 4.087458e-20) (9.438933e+00 6.892351e-01 1.929388e-20) (0.000000e+00 0.000000e+00 0.000000e+00)) ((-2.218894e+02 7.915573e+01 4.054767e+03) (-2.756940e-01 3.775573e+00 -8.019757e+00) (0.000000e+00 0.000000e+00 0.000000e+00))
0.0257143    	((2.244811e+02 7.341464e+02 3.731769e-19) (9.340855e+00 7.023060e-01 1.692731e-20) (0.000000e+00 0.000000e+00 0.000000e+00)) ((-2.936586e+02 8.979243e+01 4.484399e+03) (-2.809224e-01 3.736342e+00 -7.930490e+00) (0.000000e+00 0.000000e+00 0.000000e+00))
0.0264286    	((2.260141e+02 7.522082e+02 2.565164e-19) (9.243109e+00 7.162123e-01 1.790488e-20) (0.000000e+00 0.000000e+00 0.000000e+00)) ((-3.008833e+02 9.040566e+01 4.523163e+03) (-2.864849e-01 3.697244e+00 -7.837667e+00) (0.000000e+00 0.000000e+00 0.000000e+00))
0.0271429    	((2.495766e+02 1.029879e+03 6.766449e-19) (9.148909e+00 7.295833e-01 1.455915e-20) (0.000000e+00 0.000000e+00 0.000000e+00)) ((-4.119515e+02 9.983064e+01 5.204991e+03) (-2.918333e-01 3.659564e+00 -7.751108e+00) (0.000000e+00 0.000000e+00 0.000000e+00))
0.0278571    	((2.503904e+02 1.039526e+03 4.858347e-19) (9.055561e+00 7.426119e-01 1.521015e-20) (0.000000e+00 0.000000e+00 0.000000e+00)) ((-4.158104e+02 1.001562e+02 5.171362e+03) (-2.970447e-01 3.622224e+00 -7.665578e+00) (0.000000e+00 0.000000e+00 0.000000e+00))
0.0285714    	((2.446662e+02 1.012080e+03 5.350239e-19) (8.969448e+00 7.550079e-01 1.415498e-20) (0.000000e+00 0.000000e+00 0.000000e+00)) ((-4.048319e+02 9.786647e+01 5.081680e+03) (-3.020032e-01 3.587779e+00 -7.592517e+00) (0.000000e+00 0.000000e+00 0.000000e+00))
0.0292857    	((2.458861e+02 1.017913e+03 4.353955e-19) (8.880199e+00 7.671229e-01 1.467037e-20) (0.000000e+00 0.000000e+00 0.000000e+00)) ((-4.071650e+02 9.835444e+01 5.084515e+03) (-3.068492e-01 3.552080e+00 -7.512158e+00) (0.000000e+00 0.000000e+00 0.000000e+00))
0.03         	((2.616802e+02 1.261417e+03 6.829761e-19) (8.794997e+00 7.793647e-01 1.281403e-20) (0.000000e+00 0.000000e+00 0.000000e+00)) ((-5.045670e+02 1.046721e+02 5.706151e+03) (-3.117459e-01 3.517999e+00 -7.435801e+00) (0.000000e+00 0.000000e+00 0.000000e+00))
0.0307143    	((2.336893e+02 1.446563e+03 3.579846e-19) (8.712137e+00 7.916220e-01 1.322294e-20) (0.000000e+00 0.000000e+00 0.000000e+00)) ((-5.786250e+02 9.347573e+01 6.153111e+03) (-3.166488e-01 3.484855e+00 -7.361384e+00) (0.000000e+00 0.000000e+00 0.000000e+00))
0.0314286    	((2.367091e+02 1.397854e+03 4.278380e-19) (8.632329e+00 8.038413e-01 1.274520e-20) (0.000000e+00 0.000000e+00 0.000000e+00)) ((-5.591417e+02 9.468364e+01 6.025124e+03) (-3.215365e-01 3.452932e+00 -7.289764e+00) (0.000000e+00 0.000000e+00 0.000000e+00))
0.0321429    	((2.398153e+02 1.373191e+03 4.065007e-19) (8.552159e+00 8.157072e-01 1.273307e-20) (0.000000e+00 0.000000e+00 0.000000e+00)) ((-5.492762e+02 9.592611e+01 5.950238e+03) (-3.262829e-01 3.420864e+00 -7.214904e+00) (0.000000e+00 0.000000e+00 0.000000e+00))
0.0328571    	((2.331124e+02 1.443847e+03 2.211903e-19) (8.477022e+00 8.274302e-01 1.387357e-20) (0.000000e+00 0.000000e+00 0.000000e+00)) ((-5.775388e+02 9.324496e+01 6.133662e+03) (-3.309721e-01 3.390809e+00 -7.144478e+00) (0.000000e+00 0.000000e+00 0.000000e+00))
0.0335714    	((2.225534e+02 1.491367e+03 1.668431e-19) (8.404803e+00 8.393236e-01 1.334144e-20) (0.000000e+00 0.000000e+00 0.000000e+00)) ((-5.965469e+02 8.902135e+01 6.216749e+03) (-3.357295e-01 3.361921e+00 -7.076447e+00) (0.000000e+00 0.000000e+00 0.000000e+00))
0.03425      	((2.208805e+02 1.518592e+03 4.558222e-20) (8.334354e+00 8.506604e-01 1.414656e-20) (0.000000e+00 0.000000e+00 0.000000e+00)) ((-6.074369e+02 8.835219e+01 6.268493e+03) (-3.402641e-01 3.333742e+00 -7.005646e+00) (0.000000e+00 0.000000e+00 0.000000e+00))
0.034875     	((2.471824e+02 1.647544e+03 8.662028e-19) (8.274675e+00 8.618955e-01 7.777050e-21) (0.000000e+00 0.000000e+00 0.000000e+00)) ((-6.590177e+02 9.887295e+01 6.566088e+03) (-3.447582e-01 3.309870e+00 -6.944654e+00) (0.000000e+00 0.000000e+00 0.000000e+00))
0.0355556    	((2.200243e+02 1.442878e+03 -1.551648e-19) (8.209990e+00 8.721266e-01 1.496490e-20) (0.000000e+00 0.000000e+00 0.000000e+00)) ((-5.771512e+02 8.800972e+01 6.062523e+03) (-3.488506e-01 3.283996e+00 -6.880799e+00) (0.000000e+00 0.000000e+00 0.000000e+00))
0.03625      	((1.809985e+02 1.548462e+03 -4.075304e-19) (8.146011e+00 8.834250e-01 1.493608e-20) (0.000000e+00 0.000000e+00 0.000000e+00)) ((-6.193848e+02 7.239938e+01 6.327669e+03) (-3.533700e-01 3.258404e+00 -6.813147e+00) (0.000000e+00 0.000000e+00 0.000000e+00))
0.0369444    	((1.850272e+02 1.595380e+03 -4.479405e-19) (8.082332e+00 8.946178e-01 1.464115e-20) (0.000000e+00 0.000000e+00 0.000000e+00)) ((-6.381520e+02 7.401088e+01 6.412955e+03) (-3.578471e-01 3.232933e+00 -6.744160e+00) (0.000000e+00 0.000000e+00 0.000000e+00))
0.0376389    	((1.969305e+02 1.611223e+03 -2.602140e-19) (8.023964e+00 9.055571e-01 1.301128e-20) (0.000000e+00 0.000000e+00 0.000000e+00)) ((-6.444891e+02 7.877219e+01 6.444290e+03) (-3.622229e-01 3.209586e+00 -6.682025e+00) (0.000000e+00 0.000000e+00 0.000000e+00))
0.0383333    	((2.034103e+02 1.589497e+03 -1.791853e-19) (7.964160e+00 9.164978e-01 1.247108e-20) (0.000000e+00 0.000000e+00 0.000000e+00)) ((-6.357987e+02 8.136412e+01 6.356887e+03) (-3.665991e-01 3.185664e+00 -6.613993e+00) (0.000000e+00 0.000000e+00 0.000000e+00))
0.0390278    	((1.947433e+02 1.570414e+03 -2.631657e-19) (7.909000e+00 9.271723e-01 1.241695e-20) (0.000000e+00 0.000000e+00 0.000000e+00)) ((-6.281658e+02 7.789733e+01 6.303428e+03) (-3.708689e-01 3.163600e+00 -6.552346e+00) (0.000000e+00 0.000000e+00 0.000000e+00))
0.0397222    	((1.804767e+02 1.491033e+03 2.567814e-19) (7.853124e+00 9.379776e-01 8.985991e-21) (0.000000e+00 0.000000e+00 0.000000e+00)) ((-5.964133e+02 7.219068e+01 6.048429e+03) (-3.751911e-01 3.141250e+00 -6.487166e+00) (0.000000e+00 0.000000e+00 0.000000e+00))
0.0404167    	((1.762698e+02 1.628893e+03 -6.304033e-19) (7.799564e+00 9.475090e-01 1.362594e-20) (0.000000e+00 0.000000e+00 0.000000e+00)) ((-6.515573e+02 7.050794e+01 6.418598e+03) (-3.790036e-01 3.119826e+00 -6.427755e+00) (0.000000e+00 0.000000e+00 0.000000e+00))
0.0411111    	((1.825159e+02 1.619250e+03 -5.835904e-19) (7.745525e+00 9.576384e-01 1.426491e-20) (0.000000e+00 0.000000e+00 0.000000e+00)) ((-6.477000e+02 7.300635e+01 6.380610e+03) (-3.830554e-01 3.098210e+00 -6.364150e+00) (0.000000e+00 0.000000e+00 0.000000e+00))
0.0418056    	((1.643833e+02 1.463751e+03 -7.740361e-19) (7.699674e+00 9.665250e-01 1.379924e-20) (0.000000e+00 0.000000e+00 0.000000e+00)) ((-5.855005e+02 6.575331e+01 5.908415e+03) (-3.866100e-01 3.079869e+00 -6.316206e+00) (0.000000e+00 0.000000e+00 0.000000e+00))
0.0425       	((1.633195e+02 1.461762e+03 -6.958698e-19) (7.649040e+00 9.753153e-01 1.395489e-20) (0.000000e+00 0.000000e+00 0.000000e+00)) ((-5.847046e+02 6.532778e+01 5.940713e+03) (-3.901261e-01 3.059616e+00 -6.258685e+00) (0.000000e+00 0.000000e+00 0.000000e+00))
0.0431944    	((1.693367e+02 1.554887e+03 -4.358862e-19) (7.604246e+00 9.838599e-01 1.147676e-20) (0.000000e+00 0.000000e+00 0.000000e+00)) ((-6.219550e+02 6.773468e+01 6.041413e+03) (-3.935440e-01 3.041698e+00 -6.209387e+00) (0.000000e+00 0.000000e+00 0.000000e+00))
0.0438889    	((1.679171e+02 1.506147e+03 -5.561991e-19) (7.558607e+00 9.928037e-01 1.346830e-20) (0.000000e+00 0.000000e+00 0.000000e+00)) ((-6.024586e+02 6.716685e+01 6.008321e+03) (-3.971215e-01 3.023443e+00 -6.156230e+00) (0.000000e+00 0.000000e+00 0.000000e+00))
0.0445833    	((1.762003e+02 1.389572e+03 -8.760974e-19) (7.515204e+00 1.000738e+00 1.513585e-20) (0.000000e+00 0.000000e+00 0.000000e+00)) ((-5.558287e+02 7.048012e+01 5.683077e+03) (-4.002953e-01 3.006082e+00 -6.108679e+00) (0.000000e+00 0.000000e+00 0.000000e+00))
0.0452778    	((1.649694e+02 1.414301e+03 -1.009731e-18) (7.470673e+00 1.007831e+00 1.631623e-20) (0.000000e+00 0.000000e+00 0.000000e+00)) ((-5.657203e+02 6.598777e+01 5.675897e+03) (-4.031324e-01 2.988269e+00 -6.059282e+00) (0.000000e+00 0.000000e+00 0.000000e+00))
0.0459722    	((1.669624e+02 1.512986e+03 -2.700701e-19) (7.432462e+00 1.014981e+00 9.696023e-21) (0.000000e+00 0.000000e+00 0.000000e+00)) ((-6.051943e+02 6.678498e+01 5.915581e+03) (-4.059923e-01 2.972985e+00 -6.019611e+00) (0.000000e+00 0.000000e+00 0.000000e+00))
0.0466667    	((1.749161e+02 1.424121e+03 -7.297364e-19) (7.394065e+00 1.021529e+00 1.411927e-20) (0.000000e+00 0.000000e+00 0.000000e+00)) ((-5.696486e+02 6.996645e+01 5.679868e+03) (-4.086118e-01 2.957626e+00 -5.979525e+00) (0.000000e+00 0.000000e+00 0.000000e+00))
0.0473611    	((1.695335e+02 1.415978e+03 -8.361394e-19) (7.357283e+00 1.028530e+00 1.413102e-20) (0.000000e+00 0.000000e+00 0.000000e+00)) ((-5.663914e+02 6.781341e+01 5.646374e+03) (-4.114119e-01 2.942913e+00 -5.939045e+00) (0.000000e+00 0.000000e+00 0.000000e+00))
0.0480556    	((1.705053e+02 1.493409e+03 -2.718495e-19) (7.319660e+00 1.035762e+00 9.170551e-21) (0.000000e+00 0.000000e+00 0.000000e+00)) ((-5.973636e+02 6.820213e+01 5.766104e+03) (-4.143049e-01 2.927864e+00 -5.894967e+00) (0.000000e+00 0.000000e+00 0.000000e+00))
0.04875      	((1.868323e+02 1.478869e+03 -3.553234e-20) (7.285596e+00 1.042333e+00 8.178758e-21) (0.000000e+00 0.000000e+00 0.000000e+00)) ((-5.915478e+02 7.473292e+01 5.747067e+03) (-4.169330e-01 2.914238e+00 -5.856968e+00) (0.000000e+00 0.000000e+00 0.000000e+00))
0.0494444    	((1.521988e+02 1.289723e+03 -1.952415e-18) (7.251860e+00 1.047436e+00 2.158736e-20) (0.000000e+00 0.000000e+00 0.000000e+00)) ((-5.158893e+02 6.087951e+01 5.241220e+03) (-4.189742e-01 2.900744e+00 -5.821828e+00) (0.000000e+00 0.000000e+00 0.000000e+00))
0.0501389    	((1.761100e+02 1.451818e+03 -2.547266e-19) (7.222740e+00 1.053535e+00 9.543776e-21) (0.000000e+00 0.000000e+00 0.000000e+00)) ((-5.807274e+02 7.044400e+01 5.634969e+03) (-4.214139e-01 2.889096e+00 -5.789778e+00) (0.000000e+00 0.000000e+00 0.000000e+00))
0.0508333    	((1.876731e+02 1.536253e+03 1.995483e-19) (7.191787e+00 1.059244e+00 5.819711e-21) (0.000000e+00 0.000000e+00 0.000000e+00)) ((-6.145014e+02 7.506923e+01 5.819476e+03) (-4.236977e-01 2.876715e+00 -5.754205e+00) (0.000000e+00 0.000000e+00 0.000000e+00))
0.0515278    	((1.765560e+02 1.385925e+03 -8.339208e-19) (7.164378e+00 1.064396e+00 1.347743e-20) (0.000000e+00 0.000000e+00 0.000000e+00)) ((-5.543700e+02 7.062242e+01 5.431825e+03) (-4.257586e-01 2.865751e+00 -5.723613e+00) (0.000000e+00 0.000000e+00 0.000000e+00))
0.0522222    	((1.819658e+02 1.474077e+03 -1.603638e-19) (7.136672e+00 1.070805e+00 8.513261e-21) (0.000000e+00 0.000000e+00 0.000000e+00)) ((-5.896306e+02 7.278631e+01 5.622920e+03) (-4.283220e-01 2.854669e+00 -5.687462e+00) (0.000000e+00 0.000000e+00 0.000000e+00))
0.0529167    	((1.848699e+02 1.473295e+03 -1.614140e-19) (7.110185e+00 1.075293e+00 8.090987e-21) (0.000000e+00 0.000000e+00 0.000000e+00)) ((-5.893181e+02 7.394795e+01 5.616209e+03) (-4.301173e-01 2.844074e+00 -5.657380e+00) (0.000000e+00 0.000000e+00 0.000000e+00))
0.0536111    	((1.775316e+02 1.453352e+03 -1.866362e-19) (7.086415e+00 1.081554e+00 8.272769e-21) (0.000000e+00 0.000000e+00 0.000000e+00)) ((-5.813409e+02 7.101264e+01 5.534202e+03) (-4.326215e-01 2.834566e+00 -5.624667e+00) (0.000000e+00 0.000000e+00 0.000000e+00))
0.0543056    	((1.788124e+02 1.462024e+03 -2.715248e-19) (7.062614e+00 1.087056e+00 8.194997e-21) (0.000000e+00 0.000000e+00 0.000000e+00)) ((-5.848096e+02 7.152494e+01 5.544941e+03) (-4.348225e-01 2.825046e+00 -5.592851e+00) (0.000000e+00 0.000000e+00 0.000000e+00))
0.055        	((1.954636e+02 1.398236e+03 -8.896219e-19) (7.042759e+00 1.092194e+00 1.311212e-20) (0.000000e+00 0.000000e+00 0.000000e+00)) ((-5.592946e+02 7.818543e+01 5.386966e+03) (-4.368775e-01 2.817104e+00 -5.567233e+00) (0.000000e+00 0.000000e+00 0.000000e+00))
0.0556944    	((1.443560e+02 1.426330e+03 -1.253790e-18) (7.019602e+00 1.097643e+00 1.498856e-20) (0.000000e+00 0.000000e+00 0.000000e+00)) ((-5.705319e+02 5.774241e+01 5.477512e+03) (-4.390572e-01 2.807841e+00 -5.533602e+00) (0.000000e+00 0.000000e+00 0.000000e+00))
0.0563889    	((1.841614e+02 1.414694e+03 -2.437187e-19) (7.001244e+00 1.102947e+00 7.667250e-21) (0.000000e+00 0.000000e+00 0.000000e+00)) ((-5.658776e+02 7.366457e+01 5.400886e+03) (-4.411786e-01 2.800498e+00 -5.508643e+00) (0.000000e+00 0.000000e+00 0.000000e+00))
0.0570833    	((1.711432e+02 1.500831e+03 -9.887511e-19) (6.981126e+00 1.108425e+00 1.275706e-20) (0.000000e+00 0.000000e+00 0.000000e+00)) ((-6.003323e+02 6.845727e+01 5.634663e+03) (-4.433698e-01 2.792450e+00 -5.478306e+00) (0.000000e+00 0.000000e+00 0.000000e+00))
0.0577778    	((1.687404e+02 1.415391e+03 -9.308787e-19) (6.962389e+00 1.113168e+00 1.265020e-20) (0.000000e+00 0.000000e+00 0.000000e+00)) ((-5.661566e+02 6.749615e+01 5.402346e+03) (-4.452674e-01 2.784955e+00 -5.452537e+00) (0.000000e+00 0.000000e+00 0.000000e+00))
0.0584722    	((1.635020e+02 1.376199e+03 -1.027696e-18) (6.944128e+00 1.118794e+00 1.257562e-20) (0.000000e+00 0.000000e+00 0.000000e+00)) ((-5.504795e+02 6.540081e+01 5.307907e+03) (-4.475177e-01 2.777651e+00 -5.423773e+00) (0.000000e+00 0.000000e+00 0.000000e+00))
0.0591667    	((1.612545e+02 1.374871e+03 -1.135473e-18) (6.925698e+00 1.123512e+00 1.334509e-20) (0.000000e+00 0.000000e+00 0.000000e+00)) ((-5.499486e+02 6.450181e+01 5.305969e+03) (-4.494049e-01 2.770279e+00 -5.396596e+00) (0.000000e+00 0.000000e+00 0.000000e+00))
0.0598611    	((1.630834e+02 1.391623e+03 -1.093087e-18) (6.908222e+00 1.128426e+00 1.404362e-20) (0.000000e+00 0.000000e+00 0.000000e+00)) ((-5.566493e+02 6.523337e+01 5.352717e+03) (-4.513704e-01 2.763289e+00 -5.370141e+00) (0.000000e+00 0.000000e+00 0.000000e+00))
0.0605556    	((1.872708e+02 1.461654e+03 -7.756579e-20) (6.894172e+00 1.133356e+00 6.304275e-21) (0.000000e+00 0.000000e+00 0.000000e+00)) ((-5.846615e+02 7.490832e+01 5.512751e+03) (-4.533423e-01 2.757669e+00 -5.348655e+00) (0.000000e+00 0.000000e+00 0.000000e+00))
0.06125      	((1.667864e+02 1.389385e+03 -1.064226e-18) (6.880242e+00 1.137380e+00 1.299659e-20) (0.000000e+00 0.000000e+00 0.000000e+00)) ((-5.557542e+02 6.671457e+01 5.319852e+03) (-4.549518e-01 2.752097e+00 -5.329499e+00) (0.000000e+00 0.000000e+00 0.000000e+00))
0.0619444    	((1.474821e+02 1.388790e+03 -1.305469e-18) (6.863958e+00 1.142440e+00 1.376557e-20) (0.000000e+00 0.000000e+00 0.000000e+00)) ((-5.555161e+02 5.899286e+01 5.340427e+03) (-4.569759e-01 2.745583e+00 -5.302894e+00) (0.000000e+00 0.000000e+00 0.000000e+00))
0.0626389    	((1.467187e+02 1.399771e+03 -1.362369e-18) (6.846701e+00 1.146250e+00 1.453604e-20) (0.000000e+00 0.000000e+00 0.000000e+00)) ((-5.599083e+02 5.868748e+01 5.368916e+03) (-4.585000e-01 2.738681e+00 -5.278318e+00) (0.000000e+00 0.000000e+00 0.000000e+00))
0.0633333    	((1.438676e+02 1.404802e+03 -1.349010e-18) (6.830740e+00 1.151188e+00 1.441304e-20) (0.000000e+00 0.000000e+00 0.000000e+00)) ((-5.619208e+02 5.754702e+01 5.372664e+03) (-4.604752e-01 2.732296e+00 -5.252548e+00) (0.000000e+00 0.000000e+00 0.000000e+00))
0.0640278    	((1.418350e+02 1.399326e+03 -1.318298e-18) (6.815557e+00 1.156379e+00 1.347412e-20) (0.000000e+00 0.000000e+00 0.000000e+00)) ((-5.597305e+02 5.673400e+01 5.353693e+03) (-4.625517e-01 2.726223e+00 -5.226993e+00) (0.000000e+00 0.000000e+00 0.000000e+00))
0.0647222    	((1.465427e+02 1.407622e+03 -1.272324e-18) (6.798223e+00 1.160403e+00 1.369117e-20) (0.000000e+00 0.000000e+00 0.000000e+00)) ((-5.630488e+02 5.861707e+01 5.370140e+03) (-4.641612e-01 2.719289e+00 -5.200668e+00) (0.000000e+00 0.000000e+00 0.000000e+00))
0.0654167    	((2.091471e+02 1.309047e+03 2.406825e-19) (6.786322e+00 1.164421e+00 5.129316e-21) (0.000000e+00 0.000000e+00 0.000000e+00)) ((-5.236186e+02 8.365884e+01 5.098648e+03) (-4.657685e-01 2.714529e+00 -5.182422e+00) (0.000000e+00 0.000000e+00 0.000000e+00))
0.0661111    	((1.344952e+02 1.428705e+03 -1.478184e-18) (6.772472e+00 1.168698e+00 1.416541e-20) (0.000000e+00 0.000000e+00 0.000000e+00)) ((-5.714820e+02 5.379810e+01 5.413811e+03) (-4.674790e-01 2.708989e+00 -5.159956e+00) (0.000000e+00 0.000000e+00 0.000000e+00))
0.0668056    	((1.344626e+02 1.431660e+03 -1.479289e-18) (6.755791e+00 1.172702e+00 1.442300e-20) (0.000000e+00 0.000000e+00 0.000000e+00)) ((-5.726638e+02 5.378504e+01 5.423600e+03) (-4.690810e-01 2.702316e+00 -5.134426e+00) (0.000000e+00 0.000000e+00 0.000000e+00))
0.0675       	((1.363404e+02 1.307285e+03 -1.734144e-18) (6.742572e+00 1.177332e+00 1.742769e-20) (0.000000e+00 0.000000e+00 0.000000e+00)) ((-5.229140e+02 5.453618e+01 5.130616e+03) (-4.709326e-01 2.697029e+00 -5.112061e+00) (0.000000e+00 0.000000e+00 0.000000e+00))
0.0681944    	((1.383843e+02 1.398441e+03 -1.332345e-18) (6.727819e+00 1.181162e+00 1.439603e-20) (0.000000e+00 0.000000e+00 0.000000e+00)) ((-5.593764e+02 5.535372e+01 5.312255e+03) (-4.724648e-01 2.691128e+00 -5.089557e+00) (0.000000e+00 0.000000e+00 0.000000e+00))
0.0688889    	((1.434124e+02 1.392948e+03 -1.346981e-18) (6.713306e+00 1.185632e+00 1.422993e-20) (0.000000e+00 0.000000e+00 0.000000e+00)) ((-5.571790e+02 5.736494e+01 5.305029e+03) (-4.742527e-01 2.685322e+00 -5.065213e+00) (0.000000e+00 0.000000e+00 0.000000e+00))
0.0695833    	((1.517562e+02 1.396157e+03 -1.212453e-18) (6.700741e+00 1.188693e+00 1.439043e-20) (0.000000e+00 0.000000e+00 0.000000e+00)) ((-5.584626e+02 6.070249e+01 5.321894e+03) (-4.754774e-01 2.680296e+00 -5.047995e+00) (0.000000e+00 0.000000e+00 0.000000e+00))
0.0702778    	((1.487929e+02 1.384381e+03 -1.198357e-18) (6.689649e+00 1.193318e+00 1.403273e-20) (0.000000e+00 0.000000e+00 0.000000e+00)) ((-5.537522e+02 5.951716e+01 5.286480e+03) (-4.773272e-01 2.675860e+00 -5.028466e+00) (0.000000e+00 0.000000e+00 0.000000e+00))
0.0709722    	((1.432446e+02 1.377507e+03 -1.337458e-18) (6.677602e+00 1.196409e+00 1.463091e-20) (0.000000e+00 0.000000e+00 0.000000e+00)) ((-5.510028e+02 5.729784e+01 5.248573e+03) (-4.785636e-01 2.671041e+00 -5.011951e+00) (0.000000e+00 0.000000e+00 0.000000e+00))
0.0716667    	((1.427646e+02 1.383913e+03 -1.408012e-18) (6.664667e+00 1.198800e+00 1.574424e-20) (0.000000e+00 0.000000e+00 0.000000e+00)) ((-5.535652e+02 5.710585e+01 5.254320e+03) (-4.795202e-01 2.665867e+00 -4.995786e+00) (0.000000e+00 0.000000e+00 0.000000e+00))
0.0723611    	((7.762645e+01 1.416458e+03 -3.076338e-18) (6.652599e+00 1.202703e+00 2.592483e-20) (0.000000e+00 0.000000e+00 0.000000e+00)) ((-5.665833e+02 3.105058e+01 5.344057e+03) (-4.810812e-01 2.661040e+00 -4.978090e+00) (0.000000e+00 0.000000e+00 0.000000e+00))
0.0730556    	((1.544203e+02 1.459818e+03 -1.181589e-18) (6.641240e+00 1.205206e+00 1.313818e-20) (0.000000e+00 0.000000e+00 0.000000e+00)) ((-5.839270e+02 6.176812e+01 5.438467e+03) (-4.820823e-01 2.656496e+00 -4.962313e+00) (0.000000e+00 0.000000e+00 0.000000e+00))
0.07375      	((7.461411e+01 1.480683e+03 -2.681582e-18) (6.629601e+00 1.209247e+00 2.208555e-20) (0.000000e+00 0.000000e+00 0.000000e+00)) ((-5.922733e+02 2.984565e+01 5.481361e+03) (-4.836989e-01 2.651840e+00 -4.944568e+00) (0.000000e+00 0.000000e+00 0.000000e+00))
0.0744444    	((1.785747e+02 1.285881e+03 -9.808015e-19) (6.617360e+00 1.211792e+00 1.431391e-20) (0.000000e+00 0.000000e+00 0.000000e+00)) ((-5.143526e+02 7.142987e+01 4.999242e+03) (-4.847166e-01 2.646944e+00 -4.928589e+00) (0.000000e+00 0.000000e+00 0.000000e+00))
0.0751389    	((1.184816e+02 1.445801e+03 -1.759956e-18) (6.607323e+00 1.214729e+00 1.576868e-20) (0.000000e+00 0.000000e+00 0.000000e+00)) ((-5.783206e+02 4.739265e+01 5.354670e+03) (-4.858914e-01 2.642929e+00 -4.914219e+00) (0.000000e+00 0.000000e+00 0.000000e+00))
0.0758333    	((1.198350e+02 1.495613e+03 -1.569479e-18) (6.596569e+00 1.217862e+00 1.489960e-20) (0.000000e+00 0.000000e+00 0.000000e+00)) ((-5.982454e+02 4.793398e+01 5.492191e+03) (-4.871449e-01 2.638628e+00 -4.900036e+00) (0.000000e+00 0.000000e+00 0.000000e+00))
0.0765278    	((1.438826e+02 1.408807e+03 -2.008333e-18) (6.582666e+00 1.220739e+00 2.134224e-20) (0.000000e+00 0.000000e+00 0.000000e+00)) ((-5.635228e+02 5.755304e+01 5.285682e+03) (-4.882955e-01 2.633066e+00 -4.879891e+00) (0.000000e+00 0.000000e+00 0.000000e+00))
0.0772222    	((1.179517e+02 1.411910e+03 -2.076454e-18) (6.574100e+00 1.223127e+00 1.865740e-20) (0.000000e+00 0.000000e+00 0.000000e+00)) ((-5.647639e+02 4.718069e+01 5.240758e+03) (-4.892507e-01 2.629640e+00 -4.870581e+00) (0.000000e+00 0.000000e+00 0.000000e+00))
0.0779167    	((1.586341e+02 1.464759e+03 -9.244582e-19) (6.563962e+00 1.225287e+00 1.225548e-20) (0.000000e+00 0.000000e+00 0.000000e+00)) ((-5.859038e+02 6.345363e+01 5.397053e+03) (-4.901149e-01 2.625585e+00 -4.859197e+00) (0.000000e+00 0.000000e+00 0.000000e+00))