# Forces     
# CofR       : (0.000000e+00 0.000000e+00 0.000000e+00)
# Time       forces(pressure viscous porous) moment(pressure viscous porous)
0.000843109  	((1.417941e+02 2.239275e+02 5.666330e-18) (6.902245e+00 2.395323e-02 -1.873527e-20) (0.000000e+00 0.000000e+00 0.000000e+00)) ((-8.957099e+01 5.671763e+01 2.143559e+03) (-9.581290e-03 2.760898e+00 -5.716749e+00) (0.000000e+00 0.000000e+00 0.000000e+00))
0.00160059   	((8.481220e+02 9.311542e+02 -5.346792e-18) (8.038525e+00 -1.041132e-01 -7.741478e-21) (0.000000e+00 0.000000e+00 0.000000e+00)) ((-3.724617e+02 3.392488e+02 2.187298e+03) (4.164530e-02 3.215410e+00 -7.458243e+00) (0.000000e+00 0.000000e+00 0.000000e+00))
0.00233959   	((8.709789e+02 1.838107e+03 -3.179236e-18) (9.121368e+00 -9.080716e-02 -1.725387e-21) (0.000000e+00 0.000000e+00 0.000000e+00)) ((-7.352428e+02 3.483916e+02 4.070130e+03) (3.632286e-02 3.648547e+00 -8.379474e+00) (0.000000e+00 0.000000e+00 0.000000e+00))
0.00307859   	((8.348379e+02 1.501025e+03 -3.737202e-18) (1.007118e+01 -3.281627e-02 3.285829e-21) (0.000000e+00 0.000000e+00 0.000000e+00)) ((-6.004100e+02 3.339352e+02 3.741406e+03) (1.312651e-02 4.028472e+00 -8.976174e+00) (0.000000e+00 0.000000e+00 0.000000e+00))
0.0038176    	((8.043812e+02 1.133852e+03 -3.667969e-18) (1.086906e+01 1.582185e-03 6.743487e-21) (0.000000e+00 0.000000e+00 0.000000e+00)) ((-4.535409e+02 3.217525e+02 2.794028e+03) (-6.328740e-04 4.347625e+00 -9.492227e+00) (0.000000e+00 0.000000e+00 0.000000e+00))
0.0045566    	((6.907004e+02 1.308070e+03 -3.044798e-18) (1.150591e+01 3.398431e-02 5.943827e-21) (0.000000e+00 0.000000e+00 0.000000e+00)) ((-5.232278e+02 2.762802e+02 3.794899e+03) (-1.359372e-02 4.602363e+00 -9.852498e+00) (0.000000e+00 0.000000e+00 0.000000e+00))
0.00529412   	((6.051237e+02 1.236346e+03 -2.908915e-18) (1.199517e+01 7.692673e-02 5.816721e-21) (0.000000e+00 0.000000e+00 0.000000e+00)) ((-4.945385e+02 2.420495e+02 3.935478e+03) (-3.077069e-02 4.798069e+00 -1.006472e+01) (0.000000e+00 0.000000e+00 0.000000e+00))
0.00602941   	((5.601274e+02 1.122771e+03 4.242060e-18) (1.235465e+01 1.189425e-01 -6.177186e-21) (0.000000e+00 0.000000e+00 0.000000e+00)) ((-4.491084e+02 2.240510e+02 3.942811e+03) (-4.757700e-02 4.941858e+00 -1.017523e+01) (0.000000e+00 0.000000e+00 0.000000e+00))
0.00676471   	((5.043994e+02 9.718561e+02 2.727560e-18) (1.260795e+01 1.545407e-01 -4.552416e-21) (0.000000e+00 0.000000e+00 0.000000e+00)) ((-3.887424e+02 2.017598e+02 3.877538e+03) (-6.181626e-02 5.043180e+00 -1.021788e+01) (0.000000e+00 0.000000e+00 0.000000e+00))
0.0075       	((4.608628e+02 9.103388e+02 1.992593e-18) (1.277901e+01 1.832451e-01 -4.188693e-21) (0.000000e+00 0.000000e+00 0.000000e+00)) ((-3.641355e+02 1.843451e+02 3.976379e+03) (-7.329805e-02 5.111602e+00 -1.022283e+01) (0.000000e+00 0.000000e+00 0.000000e+00))
0.00823529   	((4.155003e+02 8.571340e+02 2.213650e-18) (1.288320e+01 2.067760e-01 -5.343163e-21) (0.000000e+00 0.000000e+00 0.000000e+00)) ((-3.428536e+02 1.662001e+02 3.902394e+03) (-8.271039e-02 5.153281e+00 -1.019741e+01) (0.000000e+00 0.000000e+00 0.000000e+00))
0.00897059   	((3.651447e+02 8.444257e+02 9.242958e-18) (1.293496e+01 2.285982e-01 -1.892372e-20) (0.000000e+00 0.000000e+00 0.000000e+00)) ((-3.377703e+02 1.460579e+02 4.062335e+03) (-9.143928e-02 5.173983e+00 -1.014396e+01) (0.000000e+00 0.000000e+00 0.000000e+00))
0.00970588   	((3.735461e+02 9.762849e+02 3.188163e-18) (1.294667e+01 2.499817e-01 -6.604830e-21) (0.000000e+00 0.000000e+00 0.000000e+00)) ((-3.905139e+02 1.494184e+02 4.624196e+03) (-9.999268e-02 5.178668e+00 -1.007309e+01) (0.000000e+00 0.000000e+00 0.000000e+00))
0.0104412    	((3.220737e+02 9.994255e+02 7.794592e-18) (1.292528e+01 2.701554e-01 -1.676995e-20) (0.000000e+00 0.000000e+00 0.000000e+00)) ((-3.997702e+02 1.288295e+02 4.861465e+03) (-1.080621e-01 5.170112e+00 -9.989088e+00) (0.000000e+00 0.000000e+00 0.000000e+00))
0.0111765    	((2.801983e+02 7.763976e+02 1.564059e-17) (1.287939e+01 2.867058e-01 -3.364203e-20) (0.000000e+00 0.000000e+00 0.000000e+00)) ((-3.105590e+02 1.120793e+02 4.349982e+03) (-1.146823e-01 5.151757e+00 -9.900447e+00) (0.000000e+00 0.000000e+00 0.000000e+00))
0.0119118    	((2.800521e+02 8.403522e+02 9.738705e-18) (1.281853e+01 3.014637e-01 -2.174076e-20) (0.000000e+00 0.000000e+00 0.000000e+00)) ((-3.361409e+02 1.120208e+02 4.702525e+03) (-1.205855e-01 5.127411e+00 -9.807729e+00) (0.000000e+00 0.000000e+00 0.000000e+00))
0.0126471    	((2.286289e+02 8.603676e+02 1.780015e-17) (1.274203e+01 3.143317e-01 -3.963526e-20) (0.000000e+00 0.000000e+00 0.000000e+00)) ((-3.441470e+02 9.145155e+01 4.949031e+03) (-1.257327e-01 5.096812e+00 -9.711304e+00) (0.000000e+00 0.000000e+00 0.000000e+00))
0.0133824    	((2.295113e+02 5.972104e+02 1.730687e-17) (1.265594e+01 3.253195e-01 -3.828336e-20) (0.000000e+00 0.000000e+00 0.000000e+00)) ((-2.388841e+02 9.180454e+01 4.229741e+03) (-1.301278e-01 5.062377e+00 -9.615610e+00) (0.000000e+00 0.000000e+00 0.000000e+00))
0.0141176    	((1.929359e+02 5.831689e+02 1.690581e-17) (1.256157e+01 3.351741e-01 -3.836162e-20) (0.000000e+00 0.000000e+00 0.000000e+00)) ((-2.332676e+02 7.717435e+01 4.385400e+03) (-1.340696e-01 5.024628e+00 -9.518083e+00) (0.000000e+00 0.000000e+00 0.000000e+00))
0.0148529    	((1.664863e+02 6.061104e+02 1.688200e-17) (1.245965e+01 3.446626e-01 -3.953483e-20) (0.000000e+00 0.000000e+00 0.000000e+00)) ((-2.424441e+02 6.659453e+01 4.521692e+03) (-1.378650e-01 4.983862e+00 -9.417600e+00) (0.000000e+00 0.000000e+00 0.000000e+00))
0.0156061    	((1.534296e+02 5.263092e+02 2.277584e-17) (1.235159e+01 3.535838e-01 -5.319698e-20) (0.000000e+00 0.000000e+00 0.000000e+00)) ((-2.105237e+02 6.137184e+01 4.319610e+03) (-1.414335e-01 4.940637e+00 -9.315086e+00) (0.000000e+00 0.000000e+00 0.000000e+00))
0.0163636    	((1.436124e+02 4.049897e+02 2.226546e-17) (1.223822e+01 3.625166e-01 -5.245816e-20) (0.000000e+00 0.000000e+00 0.000000e+00)) ((-1.619959e+02 5.744495e+01 4.130290e+03) (-1.450066e-01 4.895290e+00 -9.209859e+00) (0.000000e+00 0.000000e+00 0.000000e+00))
0.0171212    	((1.275311e+02 1.985874e+02 2.188713e-17) (1.212219e+01 3.714356e-01 -5.191005e-20) (0.000000e+00 0.000000e+00 0.000000e+00)) ((-7.943495e+01 5.101245e+01 3.532229e+03) (-1.485742e-01 4.848878e+00 -9.105608e+00) (0.000000e+00 0.000000e+00 0.000000e+00))
0.0178409    	((1.180865e+02 2.021722e+02 2.184867e-17) (1.200878e+01 3.800661e-01 -5.045962e-20) (0.000000e+00 0.000000e+00 0.000000e+00)) ((-8.086886e+01 4.723462e+01 3.590798e+03) (-1.520264e-01 4.803511e+00 -9.005194e+00) (0.000000e+00 0.000000e+00 0.000000e+00))
0.0185606    	((1.090968e+02 1.955791e+02 2.167628e-17) (1.189369e+01 3.894137e-01 -5.022060e-20) (0.000000e+00 0.000000e+00 0.000000e+00)) ((-7.823166e+01 4.363872e+01 3.664903e+03) (-1.557655e-01 4.757476e+00 -8.901764e+00) (0.000000e+00 0.000000e+00 0.000000e+00))
0.0192803    	((9.432409e+01 1.454683e+02 2.166211e-17) (1.177804e+01 3.976373e-01 -5.033907e-20) (0.000000e+00 0.000000e+00 0.000000e+00)) ((-5.818730e+01 3.772964e+01 3.599745e+03) (-1.590549e-01 4.711215e+00 -8.802403e+00) (0.000000e+00 0.000000e+00 0.000000e+00))
0.02         	((5.505349e+01 3.312899e+01 2.758038e-17) (1.166163e+01 4.059577e-01 -6.415134e-20) (0.000000e+00 0.000000e+00 0.000000e+00)) ((-1.325160e+01 2.202140e+01 3.178572e+03) (-1.623831e-01 4.664653e+00 -8.703147e+00) (0.000000e+00 0.000000e+00 0.000000e+00))
0.0207576    	((1.007593e+02 5.778286e+01 2.747446e-17) (1.154211e+01 4.142480e-01 -6.433826e-20) (0.000000e+00 0.000000e+00 0.000000e+00)) ((-2.311314e+01 4.030371e+01 3.314339e+03) (-1.656992e-01 4.616843e+00 -8.603592e+00) (0.000000e+00 0.000000e+00 0.000000e+00))
0.0215152    	((8.221749e+01 1.396048e+02 2.058143e-17) (1.142521e+01 4.213937e-01 -4.961059e-20) (0.000000e+00 0.000000e+00 0.000000e+00)) ((-5.584194e+01 3.288700e+01 3.525089e+03) (-1.685575e-01 4.570085e+00 -8.512165e+00) (0.000000e+00 0.000000e+00 0.000000e+00))
0.0222727    	((9.116295e+01 1.409075e+02 2.114473e-17) (1.130969e+01 4.289591e-01 -5.049485e-20) (0.000000e+00 0.000000e+00 0.000000e+00)) ((-5.636301e+01 3.646518e+01 3.512618e+03) (-1.715837e-01 4.523876e+00 -8.420736e+00) (0.000000e+00 0.000000e+00 0.000000e+00))
0.0230303    	((1.034734e+02 1.222808e+02 2.970479e-17) (1.119770e+01 4.361193e-01 -6.943216e-20) (0.000000e+00 0.000000e+00 0.000000e+00)) ((-4.891232e+01 4.138934e+01 3.478356e+03) (-1.744477e-01 4.479081e+00 -8.334162e+00) (0.000000e+00 0.000000e+00 0.000000e+00))
0.0237879    	((1.033033e+02 1.876176e+02 2.029210e-17) (1.108687e+01 4.427913e-01 -4.781575e-20) (0.000000e+00 0.000000e+00 0.000000e+00)) ((-7.504706e+01 4.132132e+01 3.586380e+03) (-1.771165e-01 4.434747e+00 -8.250243e+00) (0.000000e+00 0.000000e+00 0.000000e+00))
0.0245455    	((1.291124e+02 4.005875e+02 2.786064e-17) (1.098057e+01 4.501877e-01 -6.451935e-20) (0.000000e+00 0.000000e+00 0.000000e+00)) ((-1.602350e+02 5.164494e+01 4.232671e+03) (-1.800751e-01 4.392226e+00 -8.167978e+00) (0.000000e+00 0.000000e+00 0.000000e+00))
0.025303     	((9.866205e+01 2.752499e+02 2.708676e-17) (1.087601e+01 4.581802e-01 -6.310281e-20) (0.000000e+00 0.000000e+00 0.000000e+00)) ((-1.101000e+02 3.946482e+01 3.738193e+03) (-1.832721e-01 4.350404e+00 -8.084816e+00) (0.000000e+00 0.000000e+00 0.000000e+00))
0.0260606    	((1.545791e+02 3.544590e+02 1.763790e-17) (1.077348e+01 4.659217e-01 -3.999584e-20) (0.000000e+00 0.000000e+00 0.000000e+00)) ((-1.417836e+02 6.183165e+01 4.051332e+03) (-1.863687e-01 4.309390e+00 -8.004027e+00) (0.000000e+00 0.000000e+00 0.000000e+00))
0.0268182    	((1.190676e+02 6.615763e+02 2.545697e-17) (1.067333e+01 4.734908e-01 -5.861757e-20) (0.000000e+00 0.000000e+00 0.000000e+00)) ((-2.646305e+02 4.762705e+01 4.836579e+03) (-1.893963e-01 4.269331e+00 -7.925690e+00) (0.000000e+00 0.000000e+00 0.000000e+00))
0.0275758    	((1.539431e+02 6.866027e+02 2.542339e-17) (1.057466e+01 4.819374e-01 -5.725262e-20) (0.000000e+00 0.000000e+00 0.000000e+00)) ((-2.746411e+02 6.157722e+01 4.911215e+03) (-1.927749e-01 4.229865e+00 -7.846503e+00) (0.000000e+00 0.000000e+00 0.000000e+00))
0.0283333    	((1.598588e+02 6.550824e+02 2.539066e-17) (1.047891e+01 4.894959e-01 -5.688416e-20) (0.000000e+00 0.000000e+00 0.000000e+00)) ((-2.620329e+02 6.394352e+01 4.805543e+03) (-1.957984e-01 4.191565e+00 -7.772973e+00) (0.000000e+00 0.000000e+00 0.000000e+00))
0.0290909    	((1.515165e+02 7.408792e+02 1.788133e-17) (1.038498e+01 4.962593e-01 -3.966594e-20) (0.000000e+00 0.000000e+00 0.000000e+00)) ((-2.963517e+02 6.060660e+01 4.942756e+03) (-1.985037e-01 4.153994e+00 -7.704118e+00) (0.000000e+00 0.000000e+00 0.000000e+00))
0.0298485    	((1.677727e+02 1.097209e+03 2.642537e-17) (1.029258e+01 5.027682e-01 -5.949247e-20) (0.000000e+00 0.000000e+00 0.000000e+00)) ((-4.388835e+02 6.710908e+01 6.084807e+03) (-2.011073e-01 4.117030e+00 -7.638350e+00) (0.000000e+00 0.000000e+00 0.000000e+00))
0.0306061    	((1.627271e+02 1.031136e+03 2.612187e-17) (1.020212e+01 5.093135e-01 -5.848910e-20) (0.000000e+00 0.000000e+00 0.000000e+00)) ((-4.124545e+02 6.509083e+01 5.783558e+03) (-2.037254e-01 4.080847e+00 -7.574833e+00) (0.000000e+00 0.000000e+00 0.000000e+00))
0.0313636    	((1.493240e+02 8.860813e+02 1.795576e-17) (1.011230e+01 5.142263e-01 -3.944703e-20) (0.000000e+00 0.000000e+00 0.000000e+00)) ((-3.544325e+02 5.972960e+01 5.290925e+03) (-2.056905e-01 4.044919e+00 -7.517019e+00) (0.000000e+00 0.000000e+00 0.000000e+00))
0.0321212    	((1.951463e+02 1.216765e+03 1.963837e-17) (1.002673e+01 5.197543e-01 -4.220460e-20) (0.000000e+00 0.000000e+00 0.000000e+00)) ((-4.867062e+02 7.805851e+01 6.343712e+03) (-2.079017e-01 4.010691e+00 -7.460569e+00) (0.000000e+00 0.000000e+00 0.000000e+00))
0.0328788    	((1.443248e+02 1.326228e+03 2.807271e-17) (9.940867e+00 5.259363e-01 -6.244394e-20) (0.000000e+00 0.000000e+00 0.000000e+00)) ((-5.304910e+02 5.772994e+01 6.588166e+03) (-2.103745e-01 3.976347e+00 -7.400969e+00) (0.000000e+00 0.000000e+00 0.000000e+00))
0.0336364    	((1.757991e+02 1.170891e+03 1.998870e-17) (9.859199e+00 5.310973e-01 -4.225503e-20) (0.000000e+00 0.000000e+00 0.000000e+00)) ((-4.683564e+02 7.031963e+01 6.106945e+03) (-2.124389e-01 3.943680e+00 -7.346646e+00) (0.000000e+00 0.000000e+00 0.000000e+00))
0.0343939    	((1.545199e+02 1.417039e+03 2.048987e-17) (9.779763e+00 5.365896e-01 -4.402907e-20) (0.000000e+00 0.000000e+00 0.000000e+00)) ((-5.668155e+02 6.180794e+01 6.813479e+03) (-2.146359e-01 3.911905e+00 -7.291314e+00) (0.000000e+00 0.000000e+00 0.000000e+00))
0.0351515    	((1.589432e+02 1.456410e+03 2.074588e-17) (9.701868e+00 5.421476e-01 -4.459911e-20) (0.000000e+00 0.000000e+00 0.000000e+00)) ((-5.825638e+02 6.357726e+01 6.931714e+03) (-2.168591e-01 3.880747e+00 -7.235414e+00) (0.000000e+00 0.000000e+00 0.000000e+00))
0.0359091    	((1.652715e+02 1.475821e+03 2.120862e-17) (9.627642e+00 5.485500e-01 -4.486299e-20) (0.000000e+00 0.000000e+00 0.000000e+00)) ((-5.903282e+02 6.610859e+01 6.927422e+03) (-2.194200e-01 3.851057e+00 -7.178308e+00) (0.000000e+00 0.000000e+00 0.000000e+00))
0.0366667    	((1.448576e+02 1.469012e+03 2.824560e-17) (9.554382e+00 5.549730e-01 -6.187339e-20) (0.000000e+00 0.000000e+00 0.000000e+00)) ((-5.876047e+02 5.794306e+01 6.912551e+03) (-2.219892e-01 3.821753e+00 -7.120353e+00) (0.000000e+00 0.000000e+00 0.000000e+00))
0.0374242    	((1.418788e+02 1.515069e+03 2.275429e-17) (9.483405e+00 5.604869e-01 -4.976762e-20) (0.000000e+00 0.000000e+00 0.000000e+00)) ((-6.060276e+02 5.675152e+01 7.016758e+03) (-2.241947e-01 3.793362e+00 -7.066531e+00) (0.000000e+00 0.000000e+00 0.000000e+00))
0.0381818    	((1.743343e+02 1.524816e+03 1.774232e-17) (9.416125e+00 5.667535e-01 -3.676820e-20) (0.000000e+00 0.000000e+00 0.000000e+00)) ((-6.099262e+02 6.973371e+01 7.043860e+03) (-2.267014e-01 3.766450e+00 -7.012263e+00) (0.000000e+00 0.000000e+00 0.000000e+00))
0.0389394    	((1.315189e+02 1.586132e+03 2.310401e-17) (9.348587e+00 5.737802e-01 -5.040838e-20) (0.000000e+00 0.000000e+00 0.000000e+00)) ((-6.344529e+02 5.260756e+01 7.190608e+03) (-2.295121e-01 3.739435e+00 -6.954601e+00) (0.000000e+00 0.000000e+00 0.000000e+00))
0.039697     	((1.487722e+02 1.508735e+03 2.310271e-17) (9.283487e+00 5.777381e-01 -5.014530e-20) (0.000000e+00 0.000000e+00 0.000000e+00)) ((-6.034939e+02 5.950888e+01 6.971322e+03) (-2.310952e-01 3.713395e+00 -6.909301e+00) (0.000000e+00 0.000000e+00 0.000000e+00))
0.0404545    	((1.466311e+02 1.467974e+03 2.275360e-17) (9.221304e+00 5.849798e-01 -4.871102e-20) (0.000000e+00 0.000000e+00 0.000000e+00)) ((-5.871894e+02 5.865244e+01 6.818812e+03) (-2.339919e-01 3.688522e+00 -6.854122e+00) (0.000000e+00 0.000000e+00 0.000000e+00))
0.0412121    	((1.400741e+02 1.503851e+03 2.260814e-17) (9.159192e+00 5.899028e-01 -4.899431e-20) (0.000000e+00 0.000000e+00 0.000000e+00)) ((-6.015403e+02 5.602964e+01 6.907364e+03) (-2.359611e-01 3.663677e+00 -6.806521e+00) (0.000000e+00 0.000000e+00 0.000000e+00))
0.0419697    	((1.364609e+02 1.503901e+03 2.249826e-17) (9.099758e+00 5.954027e-01 -4.940176e-20) (0.000000e+00 0.000000e+00 0.000000e+00)) ((-6.015605e+02 5.458437e+01 6.905717e+03) (-2.381611e-01 3.639903e+00 -6.759101e+00) (0.000000e+00 0.000000e+00 0.000000e+00))
0.0427273    	((1.296306e+02 1.499198e+03 2.216108e-17) (9.041156e+00 6.012961e-01 -4.794481e-20) (0.000000e+00 0.000000e+00 0.000000e+00)) ((-5.996793e+02 5.185226e+01 6.852142e+03) (-2.405185e-01 3.616462e+00 -6.710539e+00) (0.000000e+00 0.000000e+00 0.000000e+00))
0.0434848    	((1.321723e+02 1.426380e+03 2.177688e-17) (8.983850e+00 6.064773e-01 -4.723310e-20) (0.000000e+00 0.000000e+00 0.000000e+00)) ((-5.705518e+02 5.286890e+01 6.601899e+03) (-2.425909e-01 3.593540e+00 -6.665011e+00) (0.000000e+00 0.000000e+00 0.000000e+00))
0.0442424    	((1.325133e+02 1.406595e+03 2.164575e-17) (8.928911e+00 6.118621e-01 -4.697035e-20) (0.000000e+00 0.000000e+00 0.000000e+00)) ((-5.626380e+02 5.300532e+01 6.544571e+03) (-2.447448e-01 3.571565e+00 -6.620392e+00) (0.000000e+00 0.000000e+00 0.000000e+00))
0.045        	((1.383928e+02 1.284871e+03 2.123504e-17) (8.874994e+00 6.170271e-01 -4.562742e-20) (0.000000e+00 0.000000e+00 0.000000e+00)) ((-5.139484e+02 5.535714e+01 6.165122e+03) (-2.468109e-01 3.549998e+00 -6.576683e+00) (0.000000e+00 0.000000e+00 0.000000e+00))
0.0457576    	((1.359795e+02 1.288669e+03 2.114843e-17) (8.822490e+00 6.206427e-01 -4.577483e-20) (0.000000e+00 0.000000e+00 0.000000e+00)) ((-5.154676e+02 5.439181e+01 6.165414e+03) (-2.482571e-01 3.528996e+00 -6.539018e+00) (0.000000e+00 0.000000e+00 0.000000e+00))
0.0465152    	((1.180005e+02 1.401589e+03 2.153857e-17) (8.771149e+00 6.269987e-01 -4.640263e-20) (0.000000e+00 0.000000e+00 0.000000e+00)) ((-5.606356e+02 4.720022e+01 6.452836e+03) (-2.507995e-01 3.508460e+00 -6.492742e+00) (0.000000e+00 0.000000e+00 0.000000e+00))
0.0472727    	((1.346872e+02 1.291757e+03 2.242356e-17) (8.720765e+00 6.315756e-01 -4.860102e-20) (0.000000e+00 0.000000e+00 0.000000e+00)) ((-5.167026e+02 5.387489e+01 6.118036e+03) (-2.526303e-01 3.488306e+00 -6.452736e+00) (0.000000e+00 0.000000e+00 0.000000e+00))
0.0480303    	((1.319453e+02 1.206575e+03 2.257316e-17) (8.672484e+00 6.362390e-01 -4.886086e-20) (0.000000e+00 0.000000e+00 0.000000e+00)) ((-4.826300e+02 5.277811e+01 5.861020e+03) (-2.544956e-01 3.468993e+00 -6.413329e+00) (0.000000e+00 0.000000e+00 0.000000e+00))
0.0487879    	((1.225209e+02 1.185363e+03 2.275329e-17) (8.625303e+00 6.403548e-01 -4.950596e-20) (0.000000e+00 0.000000e+00 0.000000e+00)) ((-4.741454e+02 4.900837e+01 5.771101e+03) (-2.561419e-01 3.450121e+00 -6.375879e+00) (0.000000e+00 0.000000e+00 0.000000e+00))
0.0495455    	((1.254499e+02 1.224764e+03 2.324740e-17) (8.579576e+00 6.462199e-01 -5.056949e-20) (0.000000e+00 0.000000e+00 0.000000e+00)) ((-4.899056e+02 5.017994e+01 5.846823e+03) (-2.584879e-01 3.431831e+00 -6.333135e+00) (0.000000e+00 0.000000e+00 0.000000e+00))
0.050303     	((1.195670e+02 1.187028e+03 2.319684e-17) (8.534588e+00 6.504809e-01 -5.094356e-20) (0.000000e+00 0.000000e+00 0.000000e+00)) ((-4.748114e+02 4.782682e+01 5.724150e+03) (-2.601923e-01 3.413835e+00 -6.295372e+00) (0.000000e+00 0.000000e+00 0.000000e+00))
0.0510606    	((1.207349e+02 1.163326e+03 2.302127e-17) (8.491683e+00 6.559188e-01 -4.998588e-20) (0.000000e+00 0.000000e+00 0.000000e+00)) ((-4.653306e+02 4.829397e+01 5.646379e+03) (-2.623675e-01 3.396673e+00 -6.254909e+00) (0.000000e+00 0.000000e+00 0.000000e+00))
0.0518182    	((1.242965e+02 1.127149e+03 2.302612e-17) (8.449235e+00 6.617678e-01 -4.994983e-20) (0.000000e+00 0.000000e+00 0.000000e+00)) ((-4.508596e+02 4.971862e+01 5.498895e+03) (-2.647071e-01 3.379694e+00 -6.211830e+00) (0.000000e+00 0.000000e+00 0.000000e+00))
0.0525758    	((1.264765e+02 1.104608e+03 2.300336e-17) (8.409384e+00 6.669448e-01 -5.027782e-20) (0.000000e+00 0.000000e+00 0.000000e+00)) ((-4.418431e+02 5.059059e+01 5.414641e+03) (-2.667779e-01 3.363753e+00 -6.173137e+00) (0.000000e+00 0.000000e+00 0.000000e+00))
0.0533333    	((1.301797e+02 1.018003e+03 2.244571e-17) (8.370919e+00 6.721457e-01 -4.870332e-20) (0.000000e+00 0.000000e+00 0.000000e+00)) ((-4.072014e+02 5.207187e+01 5.113934e+03) (-2.688583e-01 3.348368e+00 -6.134303e+00) (0.000000e+00 0.000000e+00 0.000000e+00))
0.0540909    	((1.292617e+02 9.970922e+02 2.244049e-17) (8.334003e+00 6.775819e-01 -4.887050e-20) (0.000000e+00 0.000000e+00 0.000000e+00)) ((-3.988369e+02 5.170468e+01 5.045390e+03) (-2.710328e-01 3.333601e+00 -6.094973e+00) (0.000000e+00 0.000000e+00 0.000000e+00))
0.0548485    	((1.272797e+02 1.033301e+03 2.189139e-17) (8.297556e+00 6.830080e-01 -4.771273e-20) (0.000000e+00 0.000000e+00 0.000000e+00)) ((-4.133204e+02 5.091189e+01 5.172214e+03) (-2.732032e-01 3.319022e+00 -6.055335e+00) (0.000000e+00 0.000000e+00 0.000000e+00))
0.0556061    	((1.239577e+02 1.074089e+03 2.211270e-17) (8.263398e+00 6.884634e-01 -4.858303e-20) (0.000000e+00 0.000000e+00 0.000000e+00)) ((-4.296358e+02 4.958307e+01 5.242451e+03) (-2.753854e-01 3.305359e+00 -6.017487e+00) (0.000000e+00 0.000000e+00 0.000000e+00))
0.0563636    	((1.281587e+02 1.084367e+03 2.181345e-17) (8.229442e+00 6.942566e-01 -4.753158e-20) (0.000000e+00 0.000000e+00 0.000000e+00)) ((-4.337467e+02 5.126348e+01 5.257049e+03) (-2.777026e-01 3.291777e+00 -5.978231e+00) (0.000000e+00 0.000000e+00 0.000000e+00))
0.0571212    	((1.279390e+02 1.078296e+03 2.179221e-17) (8.197225e+00 7.000840e-01 -4.811636e-20) (0.000000e+00 0.000000e+00 0.000000e+00)) ((-4.313184e+02 5.117561e+01 5.256415e+03) (-2.800336e-01 3.278890e+00 -5.939603e+00) (0.000000e+00 0.000000e+00 0.000000e+00))
0.0578788    	((1.265453e+02 1.070215e+03 2.177729e-17) (8.166180e+00 7.058742e-01 -4.792140e-20) (0.000000e+00 0.000000e+00 0.000000e+00)) ((-4.280859e+02 5.061813e+01 5.232019e+03) (-2.823497e-01 3.266472e+00 -5.901775e+00) (0.000000e+00 0.000000e+00 0.000000e+00))
0.0586364    	((1.227188e+02 1.036798e+03 2.159885e-17) (8.135340e+00 7.117024e-01 -4.738668e-20) (0.000000e+00 0.000000e+00 0.000000e+00)) ((-4.147193e+02 4.908753e+01 5.111162e+03) (-2.846809e-01 3.254136e+00 -5.863005e+00) (0.000000e+00 0.000000e+00 0.000000e+00))
0.0593939    	((1.272117e+02 1.006628e+03 2.156062e-17) (8.106679e+00 7.171573e-01 -4.761088e-20) (0.000000e+00 0.000000e+00 0.000000e+00)) ((-4.026512e+02 5.088468e+01 5.021359e+03) (-2.868629e-01 3.242672e+00 -5.827733e+00) (0.000000e+00 0.000000e+00 0.000000e+00))
0.0601515    	((1.282881e+02 1.002922e+03 2.161674e-17) (8.078796e+00 7.222794e-01 -4.779762e-20) (0.000000e+00 0.000000e+00 0.000000e+00)) ((-4.011687e+02 5.131524e+01 5.001578e+03) (-2.889117e-01 3.231518e+00 -5.793668e+00) (0.000000e+00 0.000000e+00 0.000000e+00))
0.0609091    	((1.290397e+02 9.798236e+02 2.164676e-17) (8.051884e+00 7.281807e-01 -4.812155e-20) (0.000000e+00 0.000000e+00 0.000000e+00)) ((-3.919294e+02 5.161588e+01 4.905346e+03) (-2.912723e-01 3.220754e+00 -5.757518e+00) (0.000000e+00 0.000000e+00 0.000000e+00))
0.0616667    	((1.267784e+02 9.712872e+02 2.165141e-17) (8.025837e+00 7.326494e-01 -4.829898e-20) (0.000000e+00 0.000000e+00 0.000000e+00)) ((-3.885149e+02 5.071136e+01 4.889016e+03) (-2.930598e-01 3.210335e+00 -5.726858e+00) (0.000000e+00 0.000000e+00 0.000000e+00))
0.0624242    	((1.259685e+02 9.744860e+02 2.175330e-17) (8.001002e+00 7.382588e-01 -4.858364e-20) (0.000000e+00 0.000000e+00 0.000000e+00)) ((-3.897944e+02 5.038738e+01 4.900436e+03) (-2.953035e-01 3.200401e+00 -5.693588e+00) (0.000000e+00 0.000000e+00 0.000000e+00))
0.0631818    	((1.213193e+02 9.806144e+02 2.176710e-17) (7.976549e+00 7.433525e-01 -4.835598e-20) (0.000000e+00 0.000000e+00 0.000000e+00)) ((-3.922458e+02 4.852770e+01 4.928621e+03) (-2.973410e-01 3.190620e+00 -5.662318e+00) (0.000000e+00 0.000000e+00 0.000000e+00))
0.0639394    	((1.207810e+02 9.886496e+02 2.182204e-17) (7.952657e+00 7.469568e-01 -4.899558e-20) (0.000000e+00 0.000000e+00 0.000000e+00)) ((-3.954598e+02 4.831242e+01 4.959755e+03) (-2.987827e-01 3.181063e+00 -5.636634e+00) (0.000000e+00 0.000000e+00 0.000000e+00))
0.064697     	((1.200593e+02 9.901320e+02 2.189152e-17) (7.928775e+00 7.530071e-01 -4.944213e-20) (0.000000e+00 0.000000e+00 0.000000e+00)) ((-3.960528e+02 4.802372e+01 4.956720e+03) (-3.012028e-01 3.171510e+00 -5.602554e+00) (0.000000e+00 0.000000e+00 0.000000e+00))
0.0654545    	((1.188873e+02 9.954520e+02 2.195202e-17) (7.907061e+00 7.568912e-01 -4.916370e-20) (0.000000e+00 0.000000e+00 0.000000e+00)) ((-3.981808e+02 4.755491e+01 4.964031e+03) (-3.027565e-01 3.162824e+00 -5.579022e+00) (0.000000e+00 0.000000e+00 0.000000e+00))
0.0662121    	((1.186872e+02 9.949418e+02 2.211187e-17) (7.885654e+00 7.599475e-01 -4.999244e-20) (0.000000e+00 0.000000e+00 0.000000e+00)) ((-3.979767e+02 4.747489e+01 4.957328e+03) (-3.039790e-01 3.154262e+00 -5.558351e+00) (0.000000e+00 0.000000e+00 0.000000e+00))
0.0669697    	((1.175057e+02 9.880177e+02 2.214984e-17) (7.864723e+00 7.645789e-01 -5.002174e-20) (0.000000e+00 0.000000e+00 0.000000e+00)) ((-3.952071e+02 4.700227e+01 4.942460e+03) (-3.058316e-01 3.145889e+00 -5.533015e+00) (0.000000e+00 0.000000e+00 0.000000e+00))
0.0677273    	((1.159861e+02 9.824199e+02 2.217562e-17) (7.843613e+00 7.685862e-01 -4.986707e-20) (0.000000e+00 0.000000e+00 0.000000e+00)) ((-3.929679e+02 4.639444e+01 4.927669e+03) (-3.074345e-01 3.137445e+00 -5.509683e+00) (0.000000e+00 0.000000e+00 0.000000e+00))
0.0684848    	((8.825167e+01 7.703168e+02 2.946116e-17) (7.823784e+00 7.712602e-01 -6.897741e-20) (0.000000e+00 0.000000e+00 0.000000e+00)) ((-3.081267e+02 3.530067e+01 4.346959e+03) (-3.085041e-01 3.129514e+00 -5.492694e+00) (0.000000e+00 0.000000e+00 0.000000e+00))
0.0692424    	((1.361169e+02 9.838132e+02 1.288195e-17) (7.803557e+00 7.745657e-01 -2.670496e-20) (0.000000e+00 0.000000e+00 0.000000e+00)) ((-3.935253e+02 5.444677e+01 4.941603e+03) (-3.098263e-01 3.121423e+00 -5.472426e+00) (0.000000e+00 0.000000e+00 0.000000e+00))
0.07         	((1.075366e+02 9.760263e+02 3.197677e-17) (7.785409e+00 7.771602e-01 -7.461681e-20) (0.000000e+00 0.000000e+00 0.000000e+00)) ((-3.904105e+02 4.301465e+01 4.920957e+03) (-3.108641e-01 3.114164e+00 -5.457621e+00) (0.000000e+00 0.000000e+00 0.000000e+00))
0.0707576    	((9.694370e+01 8.925777e+02 2.023371e-17) (7.765606e+00 7.804486e-01 -4.610300e-20) (0.000000e+00 0.000000e+00 0.000000e+00)) ((-3.570311e+02 3.877748e+01 4.669808e+03) (-3.121794e-01 3.106242e+00 -5.438555e+00) (0.000000e+00 0.000000e+00 0.000000e+00))
0.0715152    	((1.079843e+02 8.957696e+02 1.981163e-17) (7.746866e+00 7.823772e-01 -4.482995e-20) (0.000000e+00 0.000000e+00 0.000000e+00)) ((-3.583079e+02 4.319374e+01 4.674391e+03) (-3.129509e-01 3.098746e+00 -5.425287e+00) (0.000000e+00 0.000000e+00 0.000000e+00))
0.0722727    	((1.282349e+02 9.094865e+02 2.021937e-17) (7.729713e+00 7.851233e-01 -4.540276e-20) (0.000000e+00 0.000000e+00 0.000000e+00)) ((-3.637946e+02 5.129397e+01 4.759434e+03) (-3.140493e-01 3.091885e+00 -5.410992e+00) (0.000000e+00 0.000000e+00 0.000000e+00))
0.0730303    	((1.246594e+02 9.062127e+02 2.037990e-17) (7.713586e+00 7.869835e-01 -4.571264e-20) (0.000000e+00 0.000000e+00 0.000000e+00)) ((-3.624851e+02 4.986377e+01 4.700207e+03) (-3.147934e-01 3.085435e+00 -5.400331e+00) (0.000000e+00 0.000000e+00 0.000000e+00))
0.0737879    	((7.823417e+01 9.291755e+02 2.775646e-17) (7.693920e+00 7.895317e-01 -6.503907e-20) (0.000000e+00 0.000000e+00 0.000000e+00)) ((-3.716702e+02 3.129367e+01 4.766798e+03) (-3.158127e-01 3.077568e+00 -5.384477e+00) (0.000000e+00 0.000000e+00 0.000000e+00))
0.0745455    	((1.322837e+02 7.986742e+02 1.931074e-17) (7.678456e+00 7.906291e-01 -4.307490e-20) (0.000000e+00 0.000000e+00 0.000000e+00)) ((-3.194697e+02 5.291350e+01 4.430171e+03) (-3.162516e-01 3.071382e+00 -5.376829e+00) (0.000000e+00 0.000000e+00 0.000000e+00))
0.075303     	((8.864024e+01 9.271087e+02 2.007971e-17) (7.662198e+00 7.926823e-01 -4.601973e-20) (0.000000e+00 0.000000e+00 0.000000e+00)) ((-3.708435e+02 3.545610e+01 4.709313e+03) (-3.170729e-01 3.064879e+00 -5.364986e+00) (0.000000e+00 0.000000e+00 0.000000e+00))
0.0760606    	((8.935313e+01 9.654809e+02 2.048383e-17) (7.645168e+00 7.944788e-01 -4.744737e-20) (0.000000e+00 0.000000e+00 0.000000e+00)) ((-3.861924e+02 3.574125e+01 4.860054e+03) (-3.177915e-01 3.058067e+00 -5.354583e+00) (0.000000e+00 0.000000e+00 0.000000e+00))
0.0768182    	((1.120922e+02 8.829442e+02 2.919107e-17) (7.628770e+00 7.961826e-01 -6.797257e-20) (0.000000e+00 0.000000e+00 0.000000e+00)) ((-3.531777e+02 4.483686e+01 4.698652e+03) (-3.184731e-01 3.051508e+00 -5.343778e+00) (0.000000e+00 0.000000e+00 0.000000e+00))
0.0775758    	((9.891811e+01 8.029936e+02 2.113386e-17) (7.614101e+00 7.971063e-01 -4.853874e-20) (0.000000e+00 0.000000e+00 0.000000e+00)) ((-3.211974e+02 3.956724e+01 4.313988e+03) (-3.188425e-01 3.045640e+00 -5.337547e+00) (0.000000e+00 0.000000e+00 0.000000e+00))
0.0783333    	((1.017858e+02 8.451296e+02 2.083532e-17) (7.598443e+00 7.993114e-01 -4.783430e-20) (0.000000e+00 0.000000e+00 0.000000e+00)) ((-3.380518e+02 4.071433e+01 4.524187e+03) (-3.197246e-01 3.039377e+00 -5.325760e+00) (0.000000e+00 0.000000e+00 0.000000e+00))
0.0790909    	((1.187330e+02 8.832778e+02 2.112792e-17) (7.584239e+00 7.997806e-01 -4.861855e-20) (0.000000e+00 0.000000e+00 0.000000e+00)) ((-3.533111e+02 4.749320e+01 4.658951e+03) (-3.199123e-01 3.033695e+00 -5.320509e+00) (0.000000e+00 0.000000e+00 0.000000e+00))
0.0798485    	((1.124180e+02 8.926578e+02 2.113688e-17) (7.570506e+00 8.021621e-01 -4.820437e-20) (0.000000e+00 0.000000e+00 0.000000e+00)) ((-3.570631e+02 4.496722e+01 4.623345e+03) (-3.208648e-01 3.028202e+00 -5.310094e+00) (0.000000e+00 0.000000e+00 0.000000e+00))
0.0806061    	((1.112493e+02 8.928969e+02 2.116660e-17) (7.555778e+00 8.033257e-01 -4.861146e-20) (0.000000e+00 0.000000e+00 0.000000e+00)) ((-3.571588e+02 4.449974e+01 4.617234e+03) (-3.213303e-01 3.022311e+00 -5.302017e+00) (0.000000e+00 0.000000e+00 0.000000e+00))
0.0813636    	((6.248562e+01 8.687455e+02 2.942955e-17) (7.540698e+00 8.050172e-01 -7.052252e-20) (0.000000e+00 0.000000e+00 0.000000e+00)) ((-3.474982e+02 2.499425e+01 4.510411e+03) (-3.220069e-01 3.016279e+00 -5.291477e+00) (0.000000e+00 0.000000e+00 0.000000e+00))
0.0821212    	((6.631489e+01 8.606542e+02 2.937454e-17) (7.525172e+00 8.074277e-01 -6.999245e-20) (0.000000e+00 0.000000e+00 0.000000e+00)) ((-3.442617e+02 2.652596e+01 4.511577e+03) (-3.229711e-01 3.010069e+00 -5.278463e+00) (0.000000e+00 0.000000e+00 0.000000e+00))
0.0828788    	((6.475369e+01 9.903100e+02 2.743788e-17) (7.514483e+00 8.068986e-01 -6.555870e-20) (0.000000e+00 0.000000e+00 0.000000e+00)) ((-3.961240e+02 2.590148e+01 4.854086e+03) (-3.227594e-01 3.005793e+00 -5.278482e+00) (0.000000e+00 0.000000e+00 0.000000e+00))
0.0836364    	((1.165238e+02 7.484905e+02 2.647444e-17) (7.499407e+00 8.088618e-01 -6.162245e-20) (0.000000e+00 0.000000e+00 0.000000e+00)) ((-2.993962e+02 4.660951e+01 4.197126e+03) (-3.235447e-01 2.999763e+00 -5.267351e+00) (0.000000e+00 0.000000e+00 0.000000e+00))