# Forces     
# CofR       : (0.000000e+00 0.000000e+00 0.000000e+00)
# Time       forces(pressure viscous porous) moment(pressure viscous porous)
0.0025       	((-4.372972e+03 -6.383443e+02 1.667651e-17) (1.546462e+01 8.065581e-02 -1.869239e-18) (0.000000e+00 0.000000e+00 0.000000e+00)) ((2.553377e+02 -1.749189e+03 1.754691e+03) (-3.226232e-02 6.185847e+00 -6.821230e+00) (0.000000e+00 0.000000e+00 0.000000e+00))
0.005        	((6.174926e+02 3.801840e+03 1.300274e-18) (9.324526e+00 -2.575881e+00 -2.078999e-19) (0.000000e+00 0.000000e+00 0.000000e+00)) ((-1.520736e+03 2.469971e+02 9.572436e+03) (1.030352e+00 3.729811e+00 -1.118268e+01) (0.000000e+00 0.000000e+00 0.000000e+00))
0.0075       	((6.901511e+02 3.659891e+03 9.389547e-18) (7.587453e+00 -5.988928e+00 -5.562125e-20) (0.000000e+00 0.000000e+00 0.000000e+00)) ((-1.463956e+03 2.760605e+02 8.387890e+03) (2.395571e+00 3.034981e+00 -7.670207e+00) (0.000000e+00 0.000000e+00 0.000000e+00))
0.01         	((6.821556e+02 2.295533e+03 2.718745e-18) (6.339890e+00 -6.165362e+00 -1.300052e-19) (0.000000e+00 0.000000e+00 0.000000e+00)) ((-9.182133e+02 2.728622e+02 4.446730e+03) (2.466145e+00 2.535956e+00 3.731353e+00) (0.000000e+00 0.000000e+00 0.000000e+00))
0.0125       	((7.206747e+02 9.680151e+02 3.664122e-18) (4.645913e+00 -4.964173e+00 9.228709e-20) (0.000000e+00 0.000000e+00 0.000000e+00)) ((-3.872060e+02 2.882699e+02 1.045887e+03) (1.985669e+00 1.858365e+00 9.697380e+00) (0.000000e+00 0.000000e+00 0.000000e+00))
0.015        	((6.849932e+02 1.591553e+03 3.863310e-18) (5.736968e+00 -3.762138e+00 -2.068464e-20) (0.000000e+00 0.000000e+00 0.000000e+00)) ((-6.366211e+02 2.739973e+02 2.771969e+03) (1.504855e+00 2.294787e+00 9.889070e+00) (0.000000e+00 0.000000e+00 0.000000e+00))
0.0175       	((6.544690e+02 1.760157e+03 4.159503e-18) (5.717056e+00 -2.833509e+00 -1.888875e-20) (0.000000e+00 0.000000e+00 0.000000e+00)) ((-7.040629e+02 2.617876e+02 3.158669e+03) (1.133404e+00 2.286822e+00 4.880906e+00) (0.000000e+00 0.000000e+00 0.000000e+00))
0.02         	((6.193664e+02 1.452024e+03 4.152466e-18) (4.133374e+00 -9.867279e-01 -7.205855e-20) (0.000000e+00 0.000000e+00 0.000000e+00)) ((-5.808095e+02 2.477466e+02 2.339381e+03) (3.946912e-01 1.653350e+00 4.427503e+00) (0.000000e+00 0.000000e+00 0.000000e+00))
0.0225       	((5.993755e+02 1.453959e+03 4.707567e-18) (3.723827e+00 4.045530e-01 1.882252e-20) (0.000000e+00 0.000000e+00 0.000000e+00)) ((-5.815836e+02 2.397502e+02 2.522202e+03) (-1.618212e-01 1.489531e+00 4.894919e+00) (0.000000e+00 0.000000e+00 0.000000e+00))
0.025        	((6.142311e+02 1.498033e+03 5.271302e-18) (3.205562e+00 1.005161e+00 -5.408082e-20) (0.000000e+00 0.000000e+00 0.000000e+00)) ((-5.992132e+02 2.456924e+02 2.749076e+03) (-4.020644e-01 1.282225e+00 2.890420e+00) (0.000000e+00 0.000000e+00 0.000000e+00))
0.0275       	((6.245704e+02 1.445231e+03 5.223654e-18) (2.541823e+00 1.139737e+00 8.873916e-21) (0.000000e+00 0.000000e+00 0.000000e+00)) ((-5.780924e+02 2.498281e+02 2.700956e+03) (-4.558948e-01 1.016729e+00 2.990532e+00) (0.000000e+00 0.000000e+00 0.000000e+00))
0.03         	((6.243386e+02 1.334485e+03 4.913674e-18) (2.464919e+00 1.263137e+00 -8.775116e-21) (0.000000e+00 0.000000e+00 0.000000e+00)) ((-5.337940e+02 2.497355e+02 2.468098e+03) (-5.052548e-01 9.859677e-01 3.015612e+00) (0.000000e+00 0.000000e+00 0.000000e+00))
0.0325       	((6.172217e+02 1.050265e+03 3.555019e-18) (2.221413e+00 1.045692e+00 4.881626e-20) (0.000000e+00 0.000000e+00 0.000000e+00)) ((-4.201059e+02 2.468887e+02 1.695462e+03) (-4.182766e-01 8.885651e-01 2.567241e+00) (0.000000e+00 0.000000e+00 0.000000e+00))
0.035        	((6.100778e+02 8.044585e+02 2.529686e-18) (1.980126e+00 7.087398e-01 5.587008e-20) (0.000000e+00 0.000000e+00 0.000000e+00)) ((-3.217834e+02 2.440311e+02 1.164872e+03) (-2.834959e-01 7.920502e-01 1.753871e+00) (0.000000e+00 0.000000e+00 0.000000e+00))
0.0375       	((5.427506e+02 1.017691e+03 1.888261e-18) (1.727269e+00 4.112832e-01 4.370194e-20) (0.000000e+00 0.000000e+00 0.000000e+00)) ((-4.070763e+02 2.171002e+02 2.033396e+03) (-1.645133e-01 6.909075e-01 1.437407e+00) (0.000000e+00 0.000000e+00 0.000000e+00))
0.04         	((4.506672e+02 1.243020e+03 4.404482e-19) (1.504292e+00 2.266874e-01 2.634608e-20) (0.000000e+00 0.000000e+00 0.000000e+00)) ((-4.972079e+02 1.802669e+02 2.765219e+03) (-9.067496e-02 6.017168e-01 1.274590e+00) (0.000000e+00 0.000000e+00 0.000000e+00))
0.0425       	((4.114833e+02 7.621706e+02 -2.353182e-18) (1.335018e+00 6.819806e-02 4.819065e-20) (0.000000e+00 0.000000e+00 0.000000e+00)) ((-3.048682e+02 1.645933e+02 1.256157e+03) (-2.727922e-02 5.340073e-01 1.315829e+00) (0.000000e+00 0.000000e+00 0.000000e+00))
0.045        	((4.568605e+02 -1.068058e+02 -4.073142e-18) (1.213923e+00 -1.197900e-01 1.118030e-20) (0.000000e+00 0.000000e+00 0.000000e+00)) ((4.272232e+01 1.827442e+02 -1.299707e+03) (4.791601e-02 4.855693e-01 1.068958e+00) (0.000000e+00 0.000000e+00 0.000000e+00))
0.0475       	((4.492370e+02 1.064494e+02 -3.071824e-18) (1.119975e+00 -2.549340e-01 5.569593e-21) (0.000000e+00 0.000000e+00 0.000000e+00)) ((-4.257977e+01 1.796948e+02 -3.139895e+02) (1.019736e-01 4.479901e-01 1.005653e+00) (0.000000e+00 0.000000e+00 0.000000e+00))
0.05         	((2.981449e+02 9.942577e+02 -2.630001e-18) (9.664876e-01 -2.159073e-01 -3.931863e-20) (0.000000e+00 0.000000e+00 0.000000e+00)) ((-3.977031e+02 1.192580e+02 2.344490e+03) (8.636291e-02 3.865950e-01 1.698038e+00) (0.000000e+00 0.000000e+00 0.000000e+00))
0.0525       	((2.924070e+02 9.528175e+02 -3.250287e-18) (8.030496e-01 -2.570586e-01 -2.272545e-20) (0.000000e+00 0.000000e+00 0.000000e+00)) ((-3.811270e+02 1.169628e+02 1.996935e+03) (1.028234e-01 3.212198e-01 1.898031e+00) (0.000000e+00 0.000000e+00 0.000000e+00))
0.055        	((2.416954e+02 1.162957e+03 -3.555783e-18) (6.584114e-01 -2.846386e-01 -8.910931e-21) (0.000000e+00 0.000000e+00 0.000000e+00)) ((-4.651828e+02 9.667816e+01 2.692277e+03) (1.138555e-01 2.633646e-01 2.083995e+00) (0.000000e+00 0.000000e+00 0.000000e+00))
0.0575       	((2.176057e+02 1.302065e+03 -3.802075e-18) (5.243753e-01 -3.079347e-01 -1.606272e-20) (0.000000e+00 0.000000e+00 0.000000e+00)) ((-5.208260e+02 8.704228e+01 3.071143e+03) (1.231739e-01 2.097501e-01 2.237879e+00) (0.000000e+00 0.000000e+00 0.000000e+00))
0.06         	((2.224484e+02 1.279871e+03 -3.932047e-18) (4.212764e-01 -3.319385e-01 -2.145291e-20) (0.000000e+00 0.000000e+00 0.000000e+00)) ((-5.119486e+02 8.897934e+01 2.965490e+03) (1.327754e-01 1.685106e-01 2.340812e+00) (0.000000e+00 0.000000e+00 0.000000e+00))
0.0625       	((2.456331e+02 1.198838e+03 -3.866923e-18) (3.585737e-01 -3.886706e-01 -1.320768e-20) (0.000000e+00 0.000000e+00 0.000000e+00)) ((-4.795354e+02 9.825325e+01 2.767799e+03) (1.554682e-01 1.434295e-01 2.253457e+00) (0.000000e+00 0.000000e+00 0.000000e+00))
0.065        	((2.522362e+02 1.248339e+03 -3.721426e-18) (3.293954e-01 -4.965835e-01 -6.264941e-20) (0.000000e+00 0.000000e+00 0.000000e+00)) ((-4.993354e+02 1.008945e+02 2.987798e+03) (1.986334e-01 1.317582e-01 1.910885e+00) (0.000000e+00 0.000000e+00 0.000000e+00))
0.0675       	((2.301904e+02 1.416028e+03 -3.674166e-18) (2.437744e-01 -5.428495e-01 1.947983e-20) (0.000000e+00 0.000000e+00 0.000000e+00)) ((-5.664112e+02 9.207615e+01 3.536131e+03) (2.171398e-01 9.750978e-02 1.852479e+00) (0.000000e+00 0.000000e+00 0.000000e+00))
0.07         	((1.970661e+02 1.496956e+03 -4.179243e-18) (1.510621e-01 -5.304830e-01 2.171469e-20) (0.000000e+00 0.000000e+00 0.000000e+00)) ((-5.987822e+02 7.882642e+01 3.731756e+03) (2.121932e-01 6.042485e-02 2.026575e+00) (0.000000e+00 0.000000e+00 0.000000e+00))
0.0725       	((2.074499e+02 1.224501e+03 -5.117712e-18) (1.369930e-01 -4.898911e-01 4.158543e-20) (0.000000e+00 0.000000e+00 0.000000e+00)) ((-4.898005e+02 8.297998e+01 2.852917e+03) (1.959565e-01 5.479722e-02 2.235835e+00) (0.000000e+00 0.000000e+00 0.000000e+00))
0.075        	((2.710538e+02 5.679444e+02 -6.019633e-18) (2.146960e-01 -4.958649e-01 5.487614e-20) (0.000000e+00 0.000000e+00 0.000000e+00)) ((-2.271778e+02 1.084215e+02 8.780315e+02) (1.983460e-01 8.587840e-02 2.154004e+00) (0.000000e+00 0.000000e+00 0.000000e+00))
0.0775       	((3.228766e+02 1.118426e+02 -5.816643e-18) (2.445409e-01 -5.832556e-01 4.751340e-20) (0.000000e+00 0.000000e+00 0.000000e+00)) ((-4.473703e+01 1.291506e+02 -3.291464e+02) (2.333022e-01 9.781637e-02 1.789589e+00) (0.000000e+00 0.000000e+00 0.000000e+00))
0.08         	((3.012378e+02 4.604134e+02 -4.397180e-18) (2.312587e-01 -6.641059e-01 6.888501e-21) (0.000000e+00 0.000000e+00 0.000000e+00)) ((-1.841654e+02 1.204951e+02 9.302918e+02) (2.656424e-01 9.250347e-02 1.500654e+00) (0.000000e+00 0.000000e+00 0.000000e+00))
0.0825       	((2.703228e+02 9.219399e+02 -3.686681e-18) (1.734510e-01 -6.494541e-01 -6.786961e-21) (0.000000e+00 0.000000e+00 0.000000e+00)) ((-3.687760e+02 1.081291e+02 2.220253e+03) (2.597816e-01 6.938041e-02 1.617499e+00) (0.000000e+00 0.000000e+00 0.000000e+00))
0.085        	((3.011154e+02 7.851566e+02 -3.823582e-18) (1.211548e-01 -6.303416e-01 -4.612638e-20) (0.000000e+00 0.000000e+00 0.000000e+00)) ((-3.140626e+02 1.204461e+02 1.670268e+03) (2.521366e-01 4.846193e-02 1.688435e+00) (0.000000e+00 0.000000e+00 0.000000e+00))
0.0875       	((3.045139e+02 6.737289e+02 -3.927596e-18) (8.234463e-02 -6.014161e-01 -3.516028e-20) (0.000000e+00 0.000000e+00 0.000000e+00)) ((-2.694916e+02 1.218056e+02 1.342386e+03) (2.405664e-01 3.293785e-02 1.803660e+00) (0.000000e+00 0.000000e+00 0.000000e+00))
0.09         	((3.218462e+02 6.108711e+02 -3.686533e-18) (5.521519e-02 -5.833884e-01 -3.784722e-20) (0.000000e+00 0.000000e+00 0.000000e+00)) ((-2.443484e+02 1.287385e+02 1.121542e+03) (2.333553e-01 2.208608e-02 1.879879e+00) (0.000000e+00 0.000000e+00 0.000000e+00))
0.0925       	((3.265055e+02 7.289167e+02 -2.936026e-18) (3.122098e-02 -5.620523e-01 -5.292450e-20) (0.000000e+00 0.000000e+00 0.000000e+00)) ((-2.915667e+02 1.306022e+02 1.476895e+03) (2.248209e-01 1.248839e-02 1.972105e+00) (0.000000e+00 0.000000e+00 0.000000e+00))
0.095        	((3.319124e+02 8.767218e+02 -2.461361e-18) (2.288587e-03 -5.340624e-01 -4.869107e-20) (0.000000e+00 0.000000e+00 0.000000e+00)) ((-3.506887e+02 1.327649e+02 1.886040e+03) (2.136250e-01 9.154349e-04 2.075511e+00) (0.000000e+00 0.000000e+00 0.000000e+00))
0.0975       	((3.402645e+02 9.487831e+02 -2.228631e-18) (-3.260691e-02 -5.174886e-01 -4.272086e-20) (0.000000e+00 0.000000e+00 0.000000e+00)) ((-3.795133e+02 1.361058e+02 2.069318e+03) (2.069954e-01 -1.304276e-02 2.131534e+00) (0.000000e+00 0.000000e+00 0.000000e+00))
0.1          	((3.401175e+02 1.053982e+03 -1.980136e-18) (-7.479112e-02 -5.032515e-01 -2.696915e-20) (0.000000e+00 0.000000e+00 0.000000e+00)) ((-4.215928e+02 1.360470e+02 2.353874e+03) (2.013006e-01 -2.991645e-02 2.198060e+00) (0.000000e+00 0.000000e+00 0.000000e+00))
0.1025       	((3.462570e+02 1.132824e+03 -1.642442e-18) (-1.183028e-01 -4.900305e-01 -5.111960e-20) (0.000000e+00 0.000000e+00 0.000000e+00)) ((-4.531294e+02 1.385028e+02 2.533100e+03) (1.960122e-01 -4.732113e-02 2.262753e+00) (0.000000e+00 0.000000e+00 0.000000e+00))
0.105        	((3.565002e+02 1.177165e+03 -1.251247e-18) (-1.564555e-01 -4.745056e-01 -8.516145e-21) (0.000000e+00 0.000000e+00 0.000000e+00)) ((-4.708658e+02 1.426001e+02 2.622103e+03) (1.898023e-01 -6.258221e-02 2.323919e+00) (0.000000e+00 0.000000e+00 0.000000e+00))
0.1075       	((3.716361e+02 1.193278e+03 -8.711935e-19) (-1.864663e-01 -4.562992e-01 -5.440604e-20) (0.000000e+00 0.000000e+00 0.000000e+00)) ((-4.773111e+02 1.486544e+02 2.648242e+03) (1.825197e-01 -7.458653e-02 2.374502e+00) (0.000000e+00 0.000000e+00 0.000000e+00))
0.11         	((3.935648e+02 1.193566e+03 -4.002044e-19) (-2.087204e-01 -4.407128e-01 -1.510387e-20) (0.000000e+00 0.000000e+00 0.000000e+00)) ((-4.774265e+02 1.574259e+02 2.643966e+03) (1.762851e-01 -8.348817e-02 2.399331e+00) (0.000000e+00 0.000000e+00 0.000000e+00))
0.1125       	((4.242902e+02 1.198746e+03 2.876323e-19) (-2.152024e-01 -4.323370e-01 -1.131933e-20) (0.000000e+00 0.000000e+00 0.000000e+00)) ((-4.794985e+02 1.697161e+02 2.661569e+03) (1.729348e-01 -8.608095e-02 2.385461e+00) (0.000000e+00 0.000000e+00 0.000000e+00))
0.115        	((4.639713e+02 1.223685e+03 1.277158e-18) (-2.083276e-01 -4.299598e-01 -7.509956e-20) (0.000000e+00 0.000000e+00 0.000000e+00)) ((-4.894742e+02 1.855885e+02 2.752100e+03) (1.719839e-01 -8.333104e-02 2.342297e+00) (0.000000e+00 0.000000e+00 0.000000e+00))
0.1175       	((5.098048e+02 1.282502e+03 2.496539e-18) (-1.843382e-01 -4.318014e-01 -8.700878e-20) (0.000000e+00 0.000000e+00 0.000000e+00)) ((-5.130007e+02 2.039219e+02 2.956841e+03) (1.727206e-01 -7.373528e-02 2.269708e+00) (0.000000e+00 0.000000e+00 0.000000e+00))
0.12         	((5.563826e+02 1.366428e+03 3.796062e-18) (-1.485929e-01 -4.318660e-01 -6.177570e-20) (0.000000e+00 0.000000e+00 0.000000e+00)) ((-5.465713e+02 2.225531e+02 3.255302e+03) (1.727464e-01 -5.943714e-02 2.188995e+00) (0.000000e+00 0.000000e+00 0.000000e+00))
0.1225       	((5.928219e+02 1.467491e+03 4.889482e-18) (-1.052536e-01 -4.335093e-01 -1.318111e-19) (0.000000e+00 0.000000e+00 0.000000e+00)) ((-5.869963e+02 2.371288e+02 3.629112e+03) (1.734037e-01 -4.210145e-02 2.104572e+00) (0.000000e+00 0.000000e+00 0.000000e+00))
0.125        	((6.077515e+02 1.576625e+03 5.491679e-18) (-5.402584e-02 -4.322599e-01 -1.077469e-19) (0.000000e+00 0.000000e+00 0.000000e+00)) ((-6.306500e+02 2.431006e+02 4.060462e+03) (1.729040e-01 -2.161033e-02 2.044988e+00) (0.000000e+00 0.000000e+00 0.000000e+00))
0.1275       	((6.011681e+02 1.635261e+03 5.321166e-18) (2.500079e-02 -4.274936e-01 -1.057691e-19) (0.000000e+00 0.000000e+00 0.000000e+00)) ((-6.541044e+02 2.404672e+02 4.376115e+03) (1.709974e-01 1.000031e-02 1.995257e+00) (0.000000e+00 0.000000e+00 0.000000e+00))
0.13         	((5.976530e+02 1.475399e+03 4.116284e-18) (1.759114e-01 -4.157238e-01 -9.329103e-20) (0.000000e+00 0.000000e+00 0.000000e+00)) ((-5.901594e+02 2.390612e+02 4.077754e+03) (1.662895e-01 7.036456e-02 1.925943e+00) (0.000000e+00 0.000000e+00 0.000000e+00))
0.1325       	((6.713515e+02 7.229377e+02 1.987631e-18) (4.350158e-01 -4.302133e-01 -3.761707e-20) (0.000000e+00 0.000000e+00 0.000000e+00)) ((-2.891751e+02 2.685406e+02 1.993849e+03) (1.720853e-01 1.740063e-01 1.679394e+00) (0.000000e+00 0.000000e+00 0.000000e+00))
0.135        	((8.883450e+02 -8.952986e+02 5.209383e-20) (7.567037e-01 -5.263900e-01 1.157077e-20) (0.000000e+00 0.000000e+00 0.000000e+00)) ((3.581194e+02 3.553380e+02 -2.693243e+03) (2.105560e-01 3.026815e-01 1.099042e+00) (0.000000e+00 0.000000e+00 0.000000e+00))
0.1375       	((1.084275e+03 -2.383316e+03 -1.411493e-19) (1.047632e+00 -7.277605e-01 -3.873453e-20) (0.000000e+00 0.000000e+00 0.000000e+00)) ((9.533263e+02 4.337101e+02 -6.690420e+03) (2.911042e-01 4.190526e-01 1.642109e-01) (0.000000e+00 0.000000e+00 0.000000e+00))
0.14         	((1.090652e+03 -2.464680e+03 1.529324e-18) (1.294853e+00 -9.086599e-01 -2.700949e-20) (0.000000e+00 0.000000e+00 0.000000e+00)) ((9.858718e+02 4.362610e+02 -6.449944e+03) (3.634640e-01 5.179412e-01 -6.456510e-01) (0.000000e+00 0.000000e+00 0.000000e+00))
0.1425       	((8.621803e+02 -1.275687e+03 2.801473e-18) (1.392132e+00 -8.482952e-01 3.185555e-21) (0.000000e+00 0.000000e+00 0.000000e+00)) ((5.102746e+02 3.448721e+02 -2.814697e+03) (3.393181e-01 5.568529e-01 -2.536167e-01) (0.000000e+00 0.000000e+00 0.000000e+00))
0.145        	((5.987556e+02 -1.347014e+02 2.477143e-18) (1.339120e+00 -7.018365e-01 -4.118939e-20) (0.000000e+00 0.000000e+00 0.000000e+00)) ((5.388055e+01 2.395022e+02 1.944559e+02) (2.807346e-01 5.356480e-01 5.256833e-01) (0.000000e+00 0.000000e+00 0.000000e+00))
0.1475       	((4.560224e+02 4.698545e+02 1.523750e-18) (1.265229e+00 -6.543840e-01 8.041704e-21) (0.000000e+00 0.000000e+00 0.000000e+00)) ((-1.879418e+02 1.824090e+02 1.704029e+03) (2.617536e-01 5.060917e-01 7.364112e-01) (0.000000e+00 0.000000e+00 0.000000e+00))
0.15         	((6.250177e+02 -3.948004e+02 -7.770509e-20) (1.342135e+00 -7.321805e-01 -1.372423e-20) (0.000000e+00 0.000000e+00 0.000000e+00)) ((1.579202e+02 2.500071e+02 -1.122637e+03) (2.928722e-01 5.368538e-01 2.197525e-01) (0.000000e+00 0.000000e+00 0.000000e+00))
0.1525       	((7.089580e+02 -1.107855e+03 -2.358201e-19) (1.512055e+00 -8.572724e-01 9.898457e-21) (0.000000e+00 0.000000e+00 0.000000e+00)) ((4.431420e+02 2.835832e+02 -2.990594e+03) (3.429090e-01 6.048221e-01 -4.920630e-01) (0.000000e+00 0.000000e+00 0.000000e+00))
0.155        	((6.144398e+02 -4.868758e+02 7.830691e-19) (1.589247e+00 -8.657213e-01 -7.196082e-21) (0.000000e+00 0.000000e+00 0.000000e+00)) ((1.947503e+02 2.457759e+02 -9.079328e+02) (3.462885e-01 6.356989e-01 -5.597478e-01) (0.000000e+00 0.000000e+00 0.000000e+00))
0.1575       	((5.130719e+02 -1.033485e+01 4.883237e-20) (1.551465e+00 -8.357267e-01 -6.549686e-21) (0.000000e+00 0.000000e+00 0.000000e+00)) ((4.133938e+00 2.052288e+02 2.511224e+02) (3.342907e-01 6.205860e-01 -3.951398e-01) (0.000000e+00 0.000000e+00 0.000000e+00))
0.16         	((6.338033e+02 -5.289306e+02 -2.915946e-19) (1.598726e+00 -8.858461e-01 -3.889993e-20) (0.000000e+00 0.000000e+00 0.000000e+00)) ((2.115722e+02 2.535213e+02 -1.426217e+03) (3.543384e-01 6.394905e-01 -6.782664e-01) (0.000000e+00 0.000000e+00 0.000000e+00))
0.1625       	((5.427395e+02 -1.175263e+02 -4.844462e-20) (1.626595e+00 -8.931817e-01 -5.346342e-20) (0.000000e+00 0.000000e+00 0.000000e+00)) ((4.701053e+01 2.170958e+02 -4.547975e+01) (3.572727e-01 6.506381e-01 -7.354374e-01) (0.000000e+00 0.000000e+00 0.000000e+00))
0.165        	((5.556633e+02 -9.265971e+01 -3.700218e-19) (1.621086e+00 -8.921377e-01 -3.371805e-20) (0.000000e+00 0.000000e+00 0.000000e+00)) ((3.706388e+01 2.222653e+02 -2.290186e+02) (3.568551e-01 6.484345e-01 -7.551523e-01) (0.000000e+00 0.000000e+00 0.000000e+00))
0.1675       	((5.696474e+02 -3.177154e+02 -3.139143e-19) (1.647654e+00 -9.052081e-01 -5.372889e-20) (0.000000e+00 0.000000e+00 0.000000e+00)) ((1.270862e+02 2.278590e+02 -9.256670e+02) (3.620832e-01 6.590615e-01 -8.573170e-01) (0.000000e+00 0.000000e+00 0.000000e+00))
0.17         	((5.307439e+02 -2.151184e+02 -4.914207e-19) (1.656167e+00 -8.991364e-01 -8.923689e-20) (0.000000e+00 0.000000e+00 0.000000e+00)) ((8.604738e+01 2.122975e+02 -5.595153e+02) (3.596545e-01 6.624670e-01 -8.449334e-01) (0.000000e+00 0.000000e+00 0.000000e+00))
0.1725       	((5.333343e+02 -2.396749e+02 -7.617930e-19) (1.658639e+00 -9.002274e-01 -7.704710e-20) (0.000000e+00 0.000000e+00 0.000000e+00)) ((9.586994e+01 2.133337e+02 -6.812844e+02) (3.600910e-01 6.634558e-01 -8.605238e-01) (0.000000e+00 0.000000e+00 0.000000e+00))
0.175        	((5.151175e+02 -2.260076e+02 -1.070222e-18) (1.654834e+00 -8.992636e-01 -4.169732e-20) (0.000000e+00 0.000000e+00 0.000000e+00)) ((9.040305e+01 2.060470e+02 -6.439983e+02) (3.597054e-01 6.619336e-01 -8.633061e-01) (0.000000e+00 0.000000e+00 0.000000e+00))
0.1775       	((4.988607e+02 -1.825891e+02 -1.407555e-18) (1.639452e+00 -8.941272e-01 -1.307275e-20) (0.000000e+00 0.000000e+00 0.000000e+00)) ((7.303565e+01 1.995443e+02 -5.462898e+02) (3.576509e-01 6.557809e-01 -8.386188e-01) (0.000000e+00 0.000000e+00 0.000000e+00))
0.18         	((4.846736e+02 -1.444894e+02 -1.652979e-18) (1.615906e+00 -8.876827e-01 -8.646317e-21) (0.000000e+00 0.000000e+00 0.000000e+00)) ((5.779576e+01 1.938694e+02 -4.819705e+02) (3.550731e-01 6.463622e-01 -8.029305e-01) (0.000000e+00 0.000000e+00 0.000000e+00))
0.1825       	((4.692621e+02 -1.008363e+02 -1.837933e-18) (1.585546e+00 -8.779043e-01 -3.833967e-21) (0.000000e+00 0.000000e+00 0.000000e+00)) ((4.033454e+01 1.877048e+02 -3.964086e+02) (3.511617e-01 6.342185e-01 -7.514106e-01) (0.000000e+00 0.000000e+00 0.000000e+00))
0.185        	((4.564368e+02 -5.779773e+01 -1.980856e-18) (1.548237e+00 -8.661495e-01 -1.476473e-20) (0.000000e+00 0.000000e+00 0.000000e+00)) ((2.311909e+01 1.825747e+02 -3.102553e+02) (3.464598e-01 6.192946e-01 -6.899192e-01) (0.000000e+00 0.000000e+00 0.000000e+00))
0.1875       	((4.437744e+02 8.238724e-01 -2.105955e-18) (1.506117e+00 -8.523895e-01 -6.937835e-21) (0.000000e+00 0.000000e+00 0.000000e+00)) ((-3.295490e-01 1.775098e+02 -1.814767e+02) (3.409558e-01 6.024468e-01 -6.152004e-01) (0.000000e+00 0.000000e+00 0.000000e+00))
0.19         	((4.333180e+02 6.987095e+01 -2.186067e-18) (1.460961e+00 -8.384151e-01 -1.069402e-20) (0.000000e+00 0.000000e+00 0.000000e+00)) ((-2.794838e+01 1.733272e+02 -2.745642e+01) (3.353660e-01 5.843846e-01 -5.357815e-01) (0.000000e+00 0.000000e+00 0.000000e+00))
0.1925       	((4.251367e+02 1.349886e+02 -2.223571e-18) (1.413130e+00 -8.240641e-01 -2.373430e-20) (0.000000e+00 0.000000e+00 0.000000e+00)) ((-5.399545e+01 1.700547e+02 1.177583e+02) (3.296256e-01 5.652519e-01 -4.535661e-01) (0.000000e+00 0.000000e+00 0.000000e+00))
0.195        	((4.191427e+02 1.971235e+02 -2.213226e-18) (1.363889e+00 -8.101989e-01 -4.646263e-20) (0.000000e+00 0.000000e+00 0.000000e+00)) ((-7.884938e+01 1.676571e+02 2.578514e+02) (3.240796e-01 5.455556e-01 -3.758664e-01) (0.000000e+00 0.000000e+00 0.000000e+00))
0.1975       	((4.149749e+02 2.581361e+02 -2.168356e-18) (1.317642e+00 -7.952793e-01 -5.544136e-20) (0.000000e+00 0.000000e+00 0.000000e+00)) ((-1.032545e+02 1.659900e+02 3.888834e+02) (3.181117e-01 5.270569e-01 -3.016252e-01) (0.000000e+00 0.000000e+00 0.000000e+00))
0.2          	((4.129180e+02 3.107900e+02 -2.082207e-18) (1.272347e+00 -7.806902e-01 -5.087782e-20) (0.000000e+00 0.000000e+00 0.000000e+00)) ((-1.243160e+02 1.651672e+02 4.970973e+02) (3.122761e-01 5.089387e-01 -2.301088e-01) (0.000000e+00 0.000000e+00 0.000000e+00))
0.2025       	((4.131287e+02 3.566163e+02 -1.951946e-18) (1.224673e+00 -7.666383e-01 -6.334663e-20) (0.000000e+00 0.000000e+00 0.000000e+00)) ((-1.426465e+02 1.652515e+02 5.935609e+02) (3.066553e-01 4.898692e-01 -1.558771e-01) (0.000000e+00 0.000000e+00 0.000000e+00))
0.205        	((4.146002e+02 3.943305e+02 -1.809296e-18) (1.173184e+00 -7.533490e-01 -9.561315e-20) (0.000000e+00 0.000000e+00 0.000000e+00)) ((-1.577322e+02 1.658401e+02 6.756464e+02) (3.013396e-01 4.692736e-01 -8.081169e-02) (0.000000e+00 0.000000e+00 0.000000e+00))
0.2075       	((4.164959e+02 4.274663e+02 -1.682922e-18) (1.119105e+00 -7.422554e-01 -8.313977e-20) (0.000000e+00 0.000000e+00 0.000000e+00)) ((-1.709865e+02 1.665983e+02 7.458091e+02) (2.969022e-01 4.476421e-01 -9.141020e-03) (0.000000e+00 0.000000e+00 0.000000e+00))
0.21         	((4.177835e+02 4.545917e+02 -1.587740e-18) (1.069551e+00 -7.392232e-01 -7.603206e-20) (0.000000e+00 0.000000e+00 0.000000e+00)) ((-1.818367e+02 1.671134e+02 8.022517e+02) (2.956893e-01 4.278204e-01 2.997982e-02) (0.000000e+00 0.000000e+00 0.000000e+00))
0.2125       	((4.185050e+02 4.750026e+02 -1.534233e-18) (1.024760e+00 -7.434080e-01 1.043591e-20) (0.000000e+00 0.000000e+00 0.000000e+00)) ((-1.900010e+02 1.674020e+02 8.443926e+02) (2.973632e-01 4.099040e-01 4.062231e-02) (0.000000e+00 0.000000e+00 0.000000e+00))
0.215        	((4.183846e+02 4.846205e+02 -1.526174e-18) (9.852446e-01 -7.516059e-01 -3.437186e-20) (0.000000e+00 0.000000e+00 0.000000e+00)) ((-1.938482e+02 1.673538e+02 8.632866e+02) (3.006423e-01 3.940979e-01 3.383059e-02) (0.000000e+00 0.000000e+00 0.000000e+00))
0.2175       	((4.166446e+02 4.856522e+02 -1.598622e-18) (9.477938e-01 -7.579563e-01 -4.566422e-20) (0.000000e+00 0.000000e+00 0.000000e+00)) ((-1.942609e+02 1.666578e+02 8.605802e+02) (3.031825e-01 3.791175e-01 3.419858e-02) (0.000000e+00 0.000000e+00 0.000000e+00))
0.22         	((4.120147e+02 4.796225e+02 -1.757523e-18) (9.149194e-01 -7.639676e-01 -7.727047e-20) (0.000000e+00 0.000000e+00 0.000000e+00)) ((-1.918490e+02 1.648059e+02 8.381228e+02) (3.055870e-01 3.659678e-01 3.334460e-02) (0.000000e+00 0.000000e+00 0.000000e+00))
0.2225       	((4.063826e+02 4.653776e+02 -1.955725e-18) (8.879618e-01 -7.673077e-01 -4.585744e-20) (0.000000e+00 0.000000e+00 0.000000e+00)) ((-1.861510e+02 1.625530e+02 7.915664e+02) (3.069231e-01 3.551847e-01 4.011221e-02) (0.000000e+00 0.000000e+00 0.000000e+00))
0.225        	((3.999703e+02 4.358261e+02 -2.188938e-18) (8.633266e-01 -7.639429e-01 -5.083587e-22) (0.000000e+00 0.000000e+00 0.000000e+00)) ((-1.743304e+02 1.599881e+02 7.035973e+02) (3.055772e-01 3.453306e-01 7.303132e-02) (0.000000e+00 0.000000e+00 0.000000e+00))
0.2275       	((3.952440e+02 3.876699e+02 -2.445175e-18) (8.493774e-01 -7.610640e-01 5.984985e-21) (0.000000e+00 0.000000e+00 0.000000e+00)) ((-1.550680e+02 1.580976e+02 5.588486e+02) (3.044256e-01 3.397510e-01 9.583212e-02) (0.000000e+00 0.000000e+00 0.000000e+00))
0.23         	((3.956119e+02 3.337711e+02 -2.599387e-18) (8.369006e-01 -7.600811e-01 2.181647e-21) (0.000000e+00 0.000000e+00 0.000000e+00)) ((-1.335085e+02 1.582447e+02 3.994617e+02) (3.040324e-01 3.347602e-01 1.114166e-01) (0.000000e+00 0.000000e+00 0.000000e+00))
0.2325       	((3.968610e+02 3.116635e+02 -2.600286e-18) (8.250421e-01 -7.605410e-01 -5.364435e-20) (0.000000e+00 0.000000e+00 0.000000e+00)) ((-1.246654e+02 1.587444e+02 3.375897e+02) (3.042164e-01 3.300168e-01 1.228998e-01) (0.000000e+00 0.000000e+00 0.000000e+00))
0.235        	((3.969138e+02 3.469557e+02 -2.438199e-18) (8.062320e-01 -7.593153e-01 -1.079460e-19) (0.000000e+00 0.000000e+00 0.000000e+00)) ((-1.387823e+02 1.587655e+02 4.453243e+02) (3.037261e-01 3.224928e-01 1.479508e-01) (0.000000e+00 0.000000e+00 0.000000e+00))
0.2375       	((3.981414e+02 3.975265e+02 -2.264423e-18) (7.822310e-01 -7.556309e-01 -1.863169e-19) (0.000000e+00 0.000000e+00 0.000000e+00)) ((-1.590106e+02 1.592566e+02 5.817866e+02) (3.022524e-01 3.128924e-01 1.837172e-01) (0.000000e+00 0.000000e+00 0.000000e+00))
0.24         	((3.976665e+02 4.452561e+02 -2.140257e-18) (7.569074e-01 -7.526848e-01 -1.793903e-19) (0.000000e+00 0.000000e+00 0.000000e+00)) ((-1.781024e+02 1.590666e+02 7.087686e+02) (3.010739e-01 3.027630e-01 2.140294e-01) (0.000000e+00 0.000000e+00 0.000000e+00))
0.2425       	((3.934205e+02 5.000983e+02 -2.092253e-18) (7.327102e-01 -7.482810e-01 -1.452261e-19) (0.000000e+00 0.000000e+00 0.000000e+00)) ((-2.000393e+02 1.573682e+02 8.533349e+02) (2.993124e-01 2.930841e-01 2.483109e-01) (0.000000e+00 0.000000e+00 0.000000e+00))
0.245        	((3.877265e+02 5.419207e+02 -2.125605e-18) (7.106533e-01 -7.422173e-01 -5.968260e-20) (0.000000e+00 0.000000e+00 0.000000e+00)) ((-2.167683e+02 1.550906e+02 9.552715e+02) (2.968869e-01 2.842613e-01 2.865546e-01) (0.000000e+00 0.000000e+00 0.000000e+00))
0.2475       	((3.816631e+02 5.647836e+02 -2.225595e-18) (6.905578e-01 -7.351182e-01 -3.795157e-20) (0.000000e+00 0.000000e+00 0.000000e+00)) ((-2.259134e+02 1.526652e+02 1.002746e+03) (2.940473e-01 2.762231e-01 3.281356e-01) (0.000000e+00 0.000000e+00 0.000000e+00))
0.25         	((3.775020e+02 5.681241e+02 -2.346861e-18) (6.728239e-01 -7.284947e-01 -6.832816e-20) (0.000000e+00 0.000000e+00 0.000000e+00)) ((-2.272496e+02 1.510008e+02 9.974392e+02) (2.913979e-01 2.691296e-01 3.663090e-01) (0.000000e+00 0.000000e+00 0.000000e+00))
0.2525       	((3.751298e+02 5.596757e+02 -2.469143e-18) (6.574815e-01 -7.240244e-01 -6.405989e-20) (0.000000e+00 0.000000e+00 0.000000e+00)) ((-2.238703e+02 1.500519e+02 9.574923e+02) (2.896098e-01 2.629926e-01 3.964194e-01) (0.000000e+00 0.000000e+00 0.000000e+00))
0.255        	((3.735243e+02 5.546209e+02 -2.534737e-18) (6.400311e-01 -7.219373e-01 -8.693494e-20) (0.000000e+00 0.000000e+00 0.000000e+00)) ((-2.218484e+02 1.494097e+02 9.357795e+02) (2.887749e-01 2.560125e-01 4.225918e-01) (0.000000e+00 0.000000e+00 0.000000e+00))
0.2575       	((3.713452e+02 5.682670e+02 -2.543353e-18) (6.197594e-01 -7.204784e-01 -2.862886e-20) (0.000000e+00 0.000000e+00 0.000000e+00)) ((-2.273068e+02 1.485381e+02 9.731639e+02) (2.881914e-01 2.479038e-01 4.512442e-01) (0.000000e+00 0.000000e+00 0.000000e+00))
0.26         	((3.680583e+02 5.949209e+02 -2.535740e-18) (5.982950e-01 -7.184615e-01 -5.483679e-20) (0.000000e+00 0.000000e+00 0.000000e+00)) ((-2.379684e+02 1.472233e+02 1.046345e+03) (2.873846e-01 2.393180e-01 4.821680e-01) (0.000000e+00 0.000000e+00 0.000000e+00))
0.2625       	((3.642565e+02 6.195742e+02 -2.555746e-18) (5.787432e-01 -7.155129e-01 -7.642678e-20) (0.000000e+00 0.000000e+00 0.000000e+00)) ((-2.478297e+02 1.457026e+02 1.107835e+03) (2.862052e-01 2.314973e-01 5.130493e-01) (0.000000e+00 0.000000e+00 0.000000e+00))
0.265        	((3.605158e+02 6.356073e+02 -2.594783e-18) (5.603448e-01 -7.118627e-01 -1.115435e-19) (0.000000e+00 0.000000e+00 0.000000e+00)) ((-2.542429e+02 1.442063e+02 1.145500e+03) (2.847451e-01 2.241379e-01 5.440697e-01) (0.000000e+00 0.000000e+00 0.000000e+00))
0.2675       	((3.572092e+02 6.442331e+02 -2.653016e-18) (5.442091e-01 -7.079544e-01 -9.392449e-20) (0.000000e+00 0.000000e+00 0.000000e+00)) ((-2.576933e+02 1.428837e+02 1.162964e+03) (2.831818e-01 2.176836e-01 5.727618e-01) (0.000000e+00 0.000000e+00 0.000000e+00))
0.27         	((3.546734e+02 6.494985e+02 -2.707109e-18) (5.290530e-01 -7.047616e-01 -7.957925e-20) (0.000000e+00 0.000000e+00 0.000000e+00)) ((-2.597994e+02 1.418694e+02 1.171255e+03) (2.819047e-01 2.116212e-01 5.966697e-01) (0.000000e+00 0.000000e+00 0.000000e+00))
0.2725       	((3.528974e+02 6.580238e+02 -2.735074e-18) (5.170848e-01 -7.022227e-01 -1.074885e-19) (0.000000e+00 0.000000e+00 0.000000e+00)) ((-2.632095e+02 1.411590e+02 1.189910e+03) (2.808891e-01 2.068339e-01 6.131194e-01) (0.000000e+00 0.000000e+00 0.000000e+00))
0.275        	((3.514074e+02 6.743192e+02 -2.725703e-18) (5.062891e-01 -7.005339e-01 -1.380440e-19) (0.000000e+00 0.000000e+00 0.000000e+00)) ((-2.697277e+02 1.405630e+02 1.235197e+03) (2.802136e-01 2.025156e-01 6.228462e-01) (0.000000e+00 0.000000e+00 0.000000e+00))
0.2775       	((3.502609e+02 6.973280e+02 -2.694098e-18) (4.972794e-01 -6.985485e-01 -1.295606e-19) (0.000000e+00 0.000000e+00 0.000000e+00)) ((-2.789312e+02 1.401044e+02 1.298861e+03) (2.794194e-01 1.989118e-01 6.289798e-01) (0.000000e+00 0.000000e+00 0.000000e+00))